
                                 *****************
                                 * O   R   C   A *
                                 *****************

                                            #,                                       
                                            ###                                      
                                            ####                                     
                                            #####                                    
                                            ######                                   
                                           ########,                                 
                                     ,,################,,,,,                         
                               ,,#################################,,                 
                          ,,##########################################,,             
                       ,#########################################, ''#####,          
                    ,#############################################,,   '####,        
                  ,##################################################,,,,####,       
                ,###########''''           ''''###############################       
              ,#####''   ,,,,##########,,,,          '''####'''          '####       
            ,##' ,,,,###########################,,,                        '##       
           ' ,,###''''                  '''############,,,                           
         ,,##''                                '''############,,,,        ,,,,,,###''
      ,#''                                            '''#######################'''  
     '                                                          ''''####''''         
             ,#######,   #######,   ,#######,      ##                                
            ,#'     '#,  ##    ##  ,#'     '#,    #''#        ######   ,####,        
            ##       ##  ##   ,#'  ##            #'  '#       #        #'  '#        
            ##       ##  #######   ##           ,######,      #####,   #    #        
            '#,     ,#'  ##    ##  '#,     ,#' ,#      #,         ##   #,  ,#        
             '#######'   ##     ##  '#######'  #'      '#     #####' # '####'        



                  #######################################################
                  #                        -***-                        #
                  #          Department of theory and spectroscopy      #
                  #    Directorship and core code : Frank Neese         #
                  #        Max Planck Institute fuer Kohlenforschung    #
                  #                Kaiser Wilhelm Platz 1               #
                  #                 D-45470 Muelheim/Ruhr               #
                  #                      Germany                        #
                  #                                                     #
                  #                  All rights reserved                #
                  #                        -***-                        #
                  #######################################################


                         Program Version 5.0.4 -  RELEASE  -


 With contributions from (in alphabetic order):
   Daniel Aravena         : Magnetic Suceptibility
   Michael Atanasov       : Ab Initio Ligand Field Theory (pilot matlab implementation)
   Alexander A. Auer      : GIAO ZORA, VPT2 properties, NMR spectrum
   Ute Becker             : Parallelization
   Giovanni Bistoni       : ED, misc. LED, open-shell LED, HFLD
   Martin Brehm           : Molecular dynamics
   Dmytro Bykov           : SCF Hessian
   Vijay G. Chilkuri      : MRCI spin determinant printing, contributions to CSF-ICE
   Dipayan Datta          : RHF DLPNO-CCSD density
   Achintya Kumar Dutta   : EOM-CC, STEOM-CC
   Dmitry Ganyushin       : Spin-Orbit,Spin-Spin,Magnetic field MRCI
   Miquel Garcia          : C-PCM and meta-GGA Hessian, CC/C-PCM, Gaussian charge scheme
   Yang Guo               : DLPNO-NEVPT2, F12-NEVPT2, CIM, IAO-localization
   Andreas Hansen         : Spin unrestricted coupled pair/coupled cluster methods
   Benjamin Helmich-Paris : MC-RPA, TRAH-SCF, COSX integrals
   Lee Huntington         : MR-EOM, pCC
   Robert Izsak           : Overlap fitted RIJCOSX, COSX-SCS-MP3, EOM
   Marcus Kettner         : VPT2
   Christian Kollmar      : KDIIS, OOCD, Brueckner-CCSD(T), CCSD density, CASPT2, CASPT2-K
   Simone Kossmann        : Meta GGA functionals, TD-DFT gradient, OOMP2, MP2 Hessian
   Martin Krupicka        : Initial AUTO-CI
   Lucas Lang             : DCDCAS
   Marvin Lechner         : AUTO-CI (C++ implementation), FIC-MRCC
   Dagmar Lenk            : GEPOL surface, SMD
   Dimitrios Liakos       : Extrapolation schemes; Compound Job, initial MDCI parallelization
   Dimitrios Manganas     : Further ROCIS development; embedding schemes
   Dimitrios Pantazis     : SARC Basis sets
   Anastasios Papadopoulos: AUTO-CI, single reference methods and gradients
   Taras Petrenko         : DFT Hessian,TD-DFT gradient, ASA, ECA, R-Raman, ABS, FL, XAS/XES, NRVS
   Peter Pinski           : DLPNO-MP2, DLPNO-MP2 Gradient
   Christoph Reimann      : Effective Core Potentials
   Marius Retegan         : Local ZFS, SOC
   Christoph Riplinger    : Optimizer, TS searches, QM/MM, DLPNO-CCSD(T), (RO)-DLPNO pert. Triples
   Tobias Risthaus        : Range-separated hybrids, TD-DFT gradient, RPA, STAB
   Michael Roemelt        : Original ROCIS implementation
   Masaaki Saitow         : Open-shell DLPNO-CCSD energy and density
   Barbara Sandhoefer     : DKH picture change effects
   Avijit Sen             : IP-ROCIS
   Kantharuban Sivalingam : CASSCF convergence, NEVPT2, FIC-MRCI
   Bernardo de Souza      : ESD, SOC TD-DFT
   Georgi Stoychev        : AutoAux, RI-MP2 NMR, DLPNO-MP2 response
   Willem Van den Heuvel  : Paramagnetic NMR
   Boris Wezisla          : Elementary symmetry handling
   Frank Wennmohs         : Technical directorship


 We gratefully acknowledge several colleagues who have allowed us to
 interface, adapt or use parts of their codes:
   Stefan Grimme, W. Hujo, H. Kruse, P. Pracht,  : VdW corrections, initial TS optimization,
                  C. Bannwarth, S. Ehlert          DFT functionals, gCP, sTDA/sTD-DF
   Ed Valeev, F. Pavosevic, A. Kumar             : LibInt (2-el integral package), F12 methods
   Garnet Chan, S. Sharma, J. Yang, R. Olivares  : DMRG
   Ulf Ekstrom                                   : XCFun DFT Library
   Mihaly Kallay                                 : mrcc  (arbitrary order and MRCC methods)
   Jiri Pittner, Ondrej Demel                    : Mk-CCSD
   Frank Weinhold                                : gennbo (NPA and NBO analysis)
   Christopher J. Cramer and Donald G. Truhlar   : smd solvation model
   Lars Goerigk                                  : TD-DFT with DH, B97 family of functionals
   V. Asgeirsson, H. Jonsson                     : NEB implementation
   FAccTs GmbH                                   : IRC, NEB, NEB-TS, DLPNO-Multilevel, CI-OPT
                                                   MM, QMMM, 2- and 3-layer-ONIOM, Crystal-QMMM,
                                                   LR-CPCM, SF, NACMEs, symmetry and pop. for TD-DFT,
                                                   nearIR, NL-DFT gradient (VV10), updates on ESD,
                                                   ML-optimized integration grids
   S Lehtola, MJT Oliveira, MAL Marques          : LibXC Library
   Liviu Ungur et al                             : ANISO software


 Your calculation uses the libint2 library for the computation of 2-el integrals
 For citations please refer to: http://libint.valeyev.net

 Your ORCA version has been built with support for libXC version: 5.1.0
 For citations please refer to: https://tddft.org/programs/libxc/

 This ORCA versions uses:
   CBLAS   interface :  Fast vector & matrix operations
   LAPACKE interface :  Fast linear algebra routines
   SCALAPACK package :  Parallel linear algebra routines
   Shared memory     :  Shared parallel matrices
   BLAS/LAPACK       :  OpenBLAS 0.3.15  USE64BITINT DYNAMIC_ARCH NO_AFFINITY SkylakeX SINGLE_THREADED
        Core in use  :  SkylakeX
   Copyright (c) 2011-2014, The OpenBLAS Project


Your calculation utilizes the atom-pairwise dispersion correction
with the Becke-Johnson damping scheme (D3BJ)
Cite in your paper:
S.Grimme, S.Ehrlich, L.Goerigk, J Comput Chem, (2011), 32, 1456–1465 
S.Grimme, J.Antony, S.Ehrlich and H.Krieg, J.Chem.Phys., 132, (2010), 154104 
   

XCFun DFT library Copyright 2009-2010 Ulf Ekstrom and contributors.
See http://admol.org/xcfun for more information.
This is free software; see the source code for copying conditions.
There is ABSOLUTELY NO WARRANTY; not even for MERCHANTABILITY or FITNESS FOR A PARTICULAR PURPOSE.
For details see the documentation.
Scientific users of this library should cite U. Ekstrom, L. Visscher, R. Bast, A. J. Thorvaldsen and K. Ruud;
J.Chem.Theor.Comp. 2010, DOI: 10.1021/ct100117s
XCFun Version 0.99 

================================================================================

----- Orbital basis set information -----
Your calculation utilizes the basis: def2-TZVP(-f)
   F. Weigend and R. Ahlrichs, Phys. Chem. Chem. Phys. 7, 3297 (2005).

----- AuxJ basis set information -----
Your calculation utilizes the auxiliary basis: def2/J
   F. Weigend, Phys. Chem. Chem. Phys. 8, 1057 (2006).

================================================================================
                                        WARNINGS
                       Please study these warnings very carefully!
================================================================================

INFO   : Checking CIS options ...

WARNING: CIS/ROCIS methods need fully converged wavefunctions
  ===> : Setting SCFConvForced true
         You can overwrite this default with %scf ConvForced false 


INFO   : the flag for use of the SHARK integral package has been found!

================================================================================
                                       INPUT FILE
================================================================================
NAME = b.inp
|  1> ! cam-B3LYP D3 def2-TZVP(-f) def2/J RIJCOSX
|  2> %maxcore  1000
|  3> %pal nprocs   8 end
|  4>  %TDDFT NROOTS 150 
|  5> end
|  6> ! CPCM(DMF)
|  7> * xyz   0   1
|  8> S      4.66848600    9.29091900    8.39496900
|  9> F      1.41094400    6.31119300    6.87491600
| 10> O      2.65407200    8.24011000    3.43250600
| 11> O     -2.77044700    5.39748500    4.83533100
| 12> C      0.56631800    6.50071300    5.82950700
| 13> C     -0.65053100    5.84982300    5.91598000
| 14> H     -0.85929000    5.25437100    6.79137100
| 15> C     -1.55388300    5.97874300    4.86171800
| 16> C     -1.20588300    6.74824700    3.74158500
| 17> H     -1.91417800    6.84465500    2.92976700
| 18> C      0.02299800    7.36313300    3.69044600
| 19> H      0.29751100    7.94896200    2.82430400
| 20> C      0.95779600    7.27386900    4.73869400
| 21> C      2.26152300    7.97530900    4.57212300
| 22> C      3.01785000    8.38106800    5.76054500
| 23> H      2.58874500    8.19158500    6.73306800
| 24> C      4.20991900    8.99924600    5.64041400
| 25> H      4.59626600    9.16797000    4.63995800
| 26> C      5.04818900    9.47203400    6.69941300
| 27> C      6.25224700   10.12533000    6.54875000
| 28> H      6.67148800   10.33803000    5.57383200
| 29> C      6.87618500   10.48677900    7.77212300
| 30> C      6.12462700   10.09274800    8.84842500
| 31> H      6.35392900   10.23262600    9.89361000
| 32> C     -3.16085600    4.58446100    5.95055000
| 33> H     -4.15633200    4.22022200    5.71336400
| 34> H     -3.19032200    5.17534200    6.86783800
| 35> H     -2.47672600    3.74261100    6.07153900
| 36> C      8.18720000   11.20813000    7.86815500
| 37> H      8.97959800   10.64407400    7.37080100
| 38> H      8.47542600   11.35908700    8.90809800
| 39> H      8.13013100   12.18562500    7.38339900
| 40>  *
| 41> 
| 42>                          ****END OF INPUT****
================================================================================

                       ****************************
                       * Single Point Calculation *
                       ****************************

---------------------------------
CARTESIAN COORDINATES (ANGSTROEM)
---------------------------------
  S      4.668486    9.290919    8.394969
  F      1.410944    6.311193    6.874916
  O      2.654072    8.240110    3.432506
  O     -2.770447    5.397485    4.835331
  C      0.566318    6.500713    5.829507
  C     -0.650531    5.849823    5.915980
  H     -0.859290    5.254371    6.791371
  C     -1.553883    5.978743    4.861718
  C     -1.205883    6.748247    3.741585
  H     -1.914178    6.844655    2.929767
  C      0.022998    7.363133    3.690446
  H      0.297511    7.948962    2.824304
  C      0.957796    7.273869    4.738694
  C      2.261523    7.975309    4.572123
  C      3.017850    8.381068    5.760545
  H      2.588745    8.191585    6.733068
  C      4.209919    8.999246    5.640414
  H      4.596266    9.167970    4.639958
  C      5.048189    9.472034    6.699413
  C      6.252247   10.125330    6.548750
  H      6.671488   10.338030    5.573832
  C      6.876185   10.486779    7.772123
  C      6.124627   10.092748    8.848425
  H      6.353929   10.232626    9.893610
  C     -3.160856    4.584461    5.950550
  H     -4.156332    4.220222    5.713364
  H     -3.190322    5.175342    6.867838
  H     -2.476726    3.742611    6.071539
  C      8.187200   11.208130    7.868155
  H      8.979598   10.644074    7.370801
  H      8.475426   11.359087    8.908098
  H      8.130131   12.185625    7.383399

----------------------------
CARTESIAN COORDINATES (A.U.)
----------------------------
  NO LB      ZA    FRAG     MASS         X           Y           Z
   0 S    16.0000    0    32.060    8.822160   17.557292   15.864192
   1 F     9.0000    0    18.998    2.666298   11.926426   12.991708
   2 O     8.0000    0    15.999    5.015469   15.571551    6.486496
   3 O     8.0000    0    15.999   -5.235386   10.199768    9.137451
   4 C     6.0000    0    12.011    1.070186   12.284567   11.016172
   5 C     6.0000    0    12.011   -1.229325   11.054563   11.179582
   6 H     1.0000    0     1.008   -1.623823    9.929322   12.833831
   7 C     6.0000    0    12.011   -2.936413   11.298187    9.187316
   8 C     6.0000    0    12.011   -2.278789   12.752339    7.070571
   9 H     1.0000    0     1.008   -3.617272   12.934523    5.536457
  10 C     6.0000    0    12.011    0.043460   13.914305    6.973932
  11 H     1.0000    0     1.008    0.562214   15.021361    5.337161
  12 C     6.0000    0    12.011    1.809972   13.745620    8.954834
  13 C     6.0000    0    12.011    4.273659   15.071150    8.640060
  14 C     6.0000    0    12.011    5.702910   15.837923   10.885852
  15 H     1.0000    0     1.008    4.892019   15.479852   12.723655
  16 C     6.0000    0    12.011    7.955594   17.006110   10.658838
  17 H     1.0000    0     1.008    8.685684   17.324953    8.768250
  18 C     6.0000    0    12.011    9.539695   17.899550   12.660056
  19 C     6.0000    0    12.011   11.815035   19.134101   12.375344
  20 H     1.0000    0     1.008   12.607285   19.536045   10.533016
  21 C     6.0000    0    12.011   12.994106   19.817140   14.687184
  22 C     6.0000    0    12.011   11.573868   19.072530   16.721100
  23 H     1.0000    0     1.008   12.007186   19.336861   18.696213
  24 C     6.0000    0    12.011   -5.973152    8.663376   11.244910
  25 H     1.0000    0     1.008   -7.854329    7.975064   10.796693
  26 H     1.0000    0     1.008   -6.028835    9.779979   12.978333
  27 H     1.0000    0     1.008   -4.680334    7.072510   11.473546
  28 C     6.0000    0    12.011   15.471566   21.180296   14.868658
  29 H     1.0000    0     1.008   16.968981   20.114385   13.928795
  30 H     1.0000    0     1.008   16.016234   21.465564   16.833866
  31 H     1.0000    0     1.008   15.363721   23.027494   13.952602

--------------------------------
INTERNAL COORDINATES (ANGSTROEM)
--------------------------------
 S      0   0   0     0.000000000000     0.00000000     0.00000000
 F      1   0   0     4.669144251322     0.00000000     0.00000000
 O      2   1   0     4.137181966674    76.33201032     0.00000000
 O      2   1   3     4.741181284909   151.44218424   296.96604927
 C      2   1   3     1.357273328242   126.56965845   327.72036961
 C      5   2   1     1.382699121512   115.70602084   208.55649981
 H      6   5   2     1.079098145335   118.73386726     0.74465360
 C      4   2   1     1.348549258436    27.48927422    53.36760526
 C      8   4   2     1.402832257864   116.39770088   179.11868001
 H      9   8   4     1.081676834647   119.05995224     0.43032927
 C      9   8   4     1.375081271227   119.78026513   180.53913049
 H     11   9   8     1.081089713472   119.93604067   179.41528321
 C      5   2   1     1.393161234671   120.37759666    30.56425242
 C      3   2   1     1.234075035681    15.42035450   311.01706574
 C     14   3   2     1.465952846136   121.67679553   120.76692038
 H     15  14   3     1.079738808158   118.46172874   175.22660990
 C     15  14   3     1.348185446297   120.72137849   356.46315530
 H     17  15  14     1.085653720355   117.90656383   358.86982375
 C     17  15  14     1.430980072484   127.12232152   178.84888225
 C     19  17  15     1.378133038044   125.98147747   181.36035395
 H     20  19  17     1.082344405818   122.00884675   359.97060774
 C     20  19  17     1.420065317010   114.22691160   179.89003511
 C     22  20  19     1.370593248024   111.24830614     0.13964030
 H     23  22  20     1.079146397072   127.35772683   179.84679512
 C      4   2   1     1.434273554737    90.84879246   233.32197921
 H     25   4   2     1.086231887901   105.64960107   180.36380822
 H     25   4   2     1.091524565120   110.72737547    61.42677808
 H     25   4   2     1.091505207281   110.65744185   299.24226195
 C     22  20  19     1.499443143454   124.17913030   180.22076148
 H     29  22  20     1.092435244239   110.89433422   301.62708687
 H     29  22  20     1.089653011823   111.04139102   181.15200055
 H     29  22  20     1.092584882433   110.87431397    60.75574539

---------------------------
INTERNAL COORDINATES (A.U.)
---------------------------
 S      0   0   0     0.000000000000     0.00000000     0.00000000
 F      1   0   0     8.823403914770     0.00000000     0.00000000
 O      2   1   0     7.818140883212    76.33201032     0.00000000
 O      2   1   3     8.959534179751   151.44218424   296.96604927
 C      2   1   3     2.564874879253   126.56965845   327.72036961
 C      5   2   1     2.612922665271   115.70602084   208.55649981
 H      6   5   2     2.039199966306   118.73386726     0.74465360
 C      4   2   1     2.548388776547    27.48927422    53.36760526
 C      8   4   2     2.650968779194   116.39770088   179.11868001
 H      9   8   4     2.044072982891   119.05995224     0.43032927
 C      9   8   4     2.598527014502   119.78026513   180.53913049
 H     11   9   8     2.042963484661   119.93604067   179.41528321
 C      5   2   1     2.632693193923   120.37759666    30.56425242
 C      3   2   1     2.332063846146    15.42035450   311.01706574
 C     14   3   2     2.770249404439   121.67679553   120.76692038
 H     15  14   3     2.040410643586   118.46172874   175.22660990
 C     15  14   3     2.547701271239   120.72137849   356.46315530
 H     17  15  14     2.051588207744   117.90656383   358.86982375
 C     17  15  14     2.704160440093   127.12232152   178.84888225
 C     19  17  15     2.604294018012   125.98147747   181.36035395
 H     20  19  17     2.045334509577   122.00884675   359.97060774
 C     20  19  17     2.683534541428   114.22691160   179.89003511
 C     22  20  19     2.590045879767   111.24830614     0.13964030
 H     23  22  20     2.039291148873   127.35772683   179.84679512
 C      4   2   1     2.710384219579    90.84879246   233.32197921
 H     25   4   2     2.052680786065   105.64960107   180.36380822
 H     25   4   2     2.062682496525   110.72737547    61.42677808
 H     25   4   2     2.062645915510   110.65744185   299.24226195
 C     22  20  19     2.833536894513   124.17913030   180.22076148
 H     29  22  20     2.064403430655   110.89433422   301.62708687
 H     29  22  20     2.059145773347   111.04139102   181.15200055
 H     29  22  20     2.064686205862   110.87431397    60.75574539

---------------------
BASIS SET INFORMATION
---------------------
There are 5 groups of distinct atoms

 Group   1 Type S   : 14s9p3d contracted to 5s5p2d pattern {73211/51111/21}
 Group   2 Type F   : 11s6p2d contracted to 5s3p2d pattern {62111/411/11}
 Group   3 Type O   : 11s6p2d contracted to 5s3p2d pattern {62111/411/11}
 Group   4 Type C   : 11s6p2d contracted to 5s3p2d pattern {62111/411/11}
 Group   5 Type H   : 5s1p contracted to 3s1p pattern {311/1}

Atom   0S    basis set group =>   1
Atom   1F    basis set group =>   2
Atom   2O    basis set group =>   3
Atom   3O    basis set group =>   3
Atom   4C    basis set group =>   4
Atom   5C    basis set group =>   4
Atom   6H    basis set group =>   5
Atom   7C    basis set group =>   4
Atom   8C    basis set group =>   4
Atom   9H    basis set group =>   5
Atom  10C    basis set group =>   4
Atom  11H    basis set group =>   5
Atom  12C    basis set group =>   4
Atom  13C    basis set group =>   4
Atom  14C    basis set group =>   4
Atom  15H    basis set group =>   5
Atom  16C    basis set group =>   4
Atom  17H    basis set group =>   5
Atom  18C    basis set group =>   4
Atom  19C    basis set group =>   4
Atom  20H    basis set group =>   5
Atom  21C    basis set group =>   4
Atom  22C    basis set group =>   4
Atom  23H    basis set group =>   5
Atom  24C    basis set group =>   4
Atom  25H    basis set group =>   5
Atom  26H    basis set group =>   5
Atom  27H    basis set group =>   5
Atom  28C    basis set group =>   4
Atom  29H    basis set group =>   5
Atom  30H    basis set group =>   5
Atom  31H    basis set group =>   5
---------------------------------
AUXILIARY/J BASIS SET INFORMATION
---------------------------------
There are 5 groups of distinct atoms

 Group   1 Type S   : 14s5p5d2f1g contracted to 8s4p3d1f1g pattern {71111111/2111/311/2/1}
 Group   2 Type F   : 12s5p4d2f1g contracted to 6s4p3d1f1g pattern {711111/2111/211/2/1}
 Group   3 Type O   : 12s5p4d2f1g contracted to 6s4p3d1f1g pattern {711111/2111/211/2/1}
 Group   4 Type C   : 12s5p4d2f1g contracted to 6s4p3d1f1g pattern {711111/2111/211/2/1}
 Group   5 Type H   : 5s2p1d contracted to 3s1p1d pattern {311/2/1}

Atom   0S    basis set group =>   1
Atom   1F    basis set group =>   2
Atom   2O    basis set group =>   3
Atom   3O    basis set group =>   3
Atom   4C    basis set group =>   4
Atom   5C    basis set group =>   4
Atom   6H    basis set group =>   5
Atom   7C    basis set group =>   4
Atom   8C    basis set group =>   4
Atom   9H    basis set group =>   5
Atom  10C    basis set group =>   4
Atom  11H    basis set group =>   5
Atom  12C    basis set group =>   4
Atom  13C    basis set group =>   4
Atom  14C    basis set group =>   4
Atom  15H    basis set group =>   5
Atom  16C    basis set group =>   4
Atom  17H    basis set group =>   5
Atom  18C    basis set group =>   4
Atom  19C    basis set group =>   4
Atom  20H    basis set group =>   5
Atom  21C    basis set group =>   4
Atom  22C    basis set group =>   4
Atom  23H    basis set group =>   5
Atom  24C    basis set group =>   4
Atom  25H    basis set group =>   5
Atom  26H    basis set group =>   5
Atom  27H    basis set group =>   5
Atom  28C    basis set group =>   4
Atom  29H    basis set group =>   5
Atom  30H    basis set group =>   5
Atom  31H    basis set group =>   5

Checking for AutoStart:
The File: b.gbw exists
Trying to determine its content:
     ... Fine, the file contains calculation information
     ... Fine, the calculation information was read
     ... Fine, the file contains a basis set
     ... Fine, the basis set was read
     ... Fine, the file contains a geometry
     ... Fine, the geometry was read
     ... The file does not contain orbitals - skipping AutoStart


           ************************************************************
           *        Program running with 8 parallel MPI-processes     *
           *              working on a common directory               *
           ************************************************************
------------------------------------------------------------------------------
                           ORCA GTO INTEGRAL CALCULATION
                           -- RI-GTO INTEGRALS CHOSEN --
------------------------------------------------------------------------------
------------------------------------------------------------------------------
                   ___                                                        
                  /   \      - P O W E R E D   B Y -                         
                 /     \                                                     
                 |  |  |   _    _      __       _____    __    __             
                 |  |  |  | |  | |    /  \     |  _  \  |  |  /  |          
                  \  \/   | |  | |   /    \    | | | |  |  | /  /          
                 / \  \   | |__| |  /  /\  \   | |_| |  |  |/  /          
                |  |  |   |  __  | /  /__\  \  |    /   |      \           
                |  |  |   | |  | | |   __   |  |    \   |  |\   \          
                \     /   | |  | | |  |  |  |  | |\  \  |  | \   \       
                 \___/    |_|  |_| |__|  |__|  |_| \__\ |__|  \__/        
                                                                              
                      - O R C A' S   B I G   F R I E N D -                    
                                      &                                       
                       - I N T E G R A L  F E E D E R -                       
                                                                              
 v1 FN, 2020, v2 2021                                                         
------------------------------------------------------------------------------


Reading SHARK input file b.SHARKINP.tmp ... ok
----------------------
SHARK INTEGRAL PACKAGE
----------------------

Number of atoms                             ...     32
Number of basis functions                   ...    540
Number of shells                            ...    244
Maximum angular momentum                    ...      2
Integral batch strategy                     ... SHARK/LIBINT Hybrid
RI-J (if used) integral strategy            ... SPLIT-RIJ (Revised 2003 algorithm where possible)
Printlevel                                  ...      1
Contraction scheme used                     ... SEGMENTED contraction
Coulomb Range Separation                    ... NOT USED
Exchange Range Separation                   ... Long Range
   Mu parameter                             ...  0.330000
   Scaling (regular/separated)              ...  0.190000  0.460000
Finite Nucleus Model                        ... NOT USED
Auxiliary Coulomb fitting basis             ... AVAILABLE
   # of basis functions in Aux-J            ...   1076
   # of shells in Aux-J                     ...    352
   Maximum angular momentum in Aux-J        ...      4
Auxiliary J/K fitting basis                 ... NOT available
Auxiliary Correlation fitting basis         ... NOT available
Auxiliary 'external' fitting basis          ... NOT available
Integral threshold                          ...     1.000000e-10
Primitive cut-off                           ...     1.000000e-11
Primitive pair pre-selection threshold      ...     1.000000e-11

Calculating pre-screening integrals         ... done (  0.1 sec) Dimension = 244
Organizing shell pair data                  ... done (  0.2 sec)
Shell pair information
Total number of shell pairs                 ...     29890
Shell pairs after pre-screening             ...     18438
Total number of primitive shell pairs       ...    100152
Primitive shell pairs kept                  ...     40914
          la=0 lb=0:   5214 shell pairs
          la=1 lb=0:   6143 shell pairs
          la=1 lb=1:   1818 shell pairs
          la=2 lb=0:   3034 shell pairs
          la=2 lb=1:   1778 shell pairs
          la=2 lb=2:    451 shell pairs

Calculating one electron integrals          ... done (  0.0 sec)
Calculating RI/J V-Matrix + Cholesky decomp.... done (  0.1 sec)
Calculating Nuclear repulsion               ... done (  0.0 sec) ENN=   1397.817299808039 Eh

SHARK setup successfully completed in   0.6 seconds

Maximum memory used throughout the entire GTOINT-calculation: 30.1 MB


           ************************************************************
           *        Program running with 8 parallel MPI-processes     *
           *              working on a common directory               *
           ************************************************************
-------------------------------------------------------------------------------
                                 ORCA SCF
-------------------------------------------------------------------------------

------------
SCF SETTINGS
------------
Hamiltonian:
 Density Functional     Method          .... DFT(GTOs)
 Exchange Functional    Exchange        .... WB88
 Correlation Functional Correlation     .... LYP
 LDA part of GGA corr.  LDAOpt          .... VWN-5
 Gradients option       PostSCFGGA      .... off
 Hybrid DFT is turned on
   Fraction HF Exchange ScalHFX         ....  0.190000
   Scaling of DF-GGA-X  ScalDFX         ....  0.350000
   Scaling of DF-GGA-C  ScalDFC         ....  0.810000
   Scaling of DF-LDA-C  ScalLDAC        ....  1.000000
   Perturbative correction              ....  0.000000
   Density functional embedding theory  .... OFF
 Long-range corrected/Screened/Range-Separated Hybrid DFT is turned on
   Amount of maximum screened exact exchange              ....  0.460000
   Range separation parameter mu (erf(mu*r12)/r12)        ....  0.330000
 RI-approximation to the Coulomb term is turned on
   Number of AuxJ basis functions       .... 1076
   RIJ-COSX (HFX calculated with COS-X)).... on


General Settings:
 Integral files         IntName         .... b
 Hartree-Fock type      HFTyp           .... RHF
 Total Charge           Charge          ....    0
 Multiplicity           Mult            ....    1
 Number of Electrons    NEL             ....  144
 Basis Dimension        Dim             ....  540
 Nuclear Repulsion      ENuc            ....   1397.8172998080 Eh

Convergence Acceleration:
 DIIS                   CNVDIIS         .... on
   Start iteration      DIISMaxIt       ....    12
   Startup error        DIISStart       ....  0.200000
   # of expansion vecs  DIISMaxEq       ....     5
   Bias factor          DIISBfac        ....   1.050
   Max. coefficient     DIISMaxC        ....  10.000
 Trust-Rad. Augm. Hess. CNVTRAH         .... auto
   Auto Start mean grad. ratio tolernc. ....  1.125000
   Auto Start start iteration           ....    20
   Auto Start num. interpolation iter.  ....    10
   Max. Number of Micro iterations      ....    16
   Max. Number of Macro iterations      .... Maxiter - #DIIS iter
   Number of Davidson start vectors     ....     2
   Converg. threshold I  (grad. norm)   ....   5.000e-05
   Converg. threshold II (energy diff.) ....   1.000e-06
   Grad. Scal. Fac. for Micro threshold ....   0.100
   Minimum threshold for Micro iter.    ....   0.010
   NR start threshold (gradient norm)   ....   0.001
   Initial trust radius                 ....   0.400
   Minimum AH scaling param. (alpha)    ....   1.000
   Maximum AH scaling param. (alpha)    .... 1000.000
   Orbital update algorithm             .... Taylor
   White noise on init. David. guess    .... on
   Maximum white noise                  ....   0.010
   Quad. conv. algorithm                .... NR
 SOSCF                  CNVSOSCF        .... on
   Start iteration      SOSCFMaxIt      ....   150
   Startup grad/error   SOSCFStart      ....  0.003300
 Level Shifting         CNVShift        .... on
   Level shift para.    LevelShift      ....    0.2500
   Turn off err/grad.   ShiftErr        ....    0.0010
 Zerner damping         CNVZerner       .... off
 Static damping         CNVDamp         .... on
   Fraction old density DampFac         ....    0.7000
   Max. Damping (<1)    DampMax         ....    0.9800
   Min. Damping (>=0)   DampMin         ....    0.0000
   Turn off err/grad.   DampErr         ....    0.1000
 Fernandez-Rico         CNVRico         .... off

SCF Procedure:
 Maximum # iterations   MaxIter         ....   125
 SCF integral mode      SCFMode         .... Direct
   Integral package                     .... SHARK and LIBINT hybrid scheme
 Reset frequency        DirectResetFreq ....    20
 Integral Threshold     Thresh          ....  1.000e-10 Eh
 Primitive CutOff       TCut            ....  1.000e-11 Eh

Convergence Tolerance:
 Convergence Check Mode ConvCheckMode   .... Total+1el-Energy
 Convergence forced     ConvForced      .... 1
 Energy Change          TolE            ....  1.000e-06 Eh
 1-El. energy change                    ....  1.000e-03 Eh
 Orbital Gradient       TolG            ....  5.000e-05
 Orbital Rotation angle TolX            ....  5.000e-05
 DIIS Error             TolErr          ....  1.000e-06


Diagonalization of the overlap matrix:
Smallest eigenvalue                        ... 9.639e-06
Time for diagonalization                   ...    0.054 sec
Threshold for overlap eigenvalues          ... 1.000e-08
Number of eigenvalues below threshold      ... 0
Time for construction of square roots      ...    0.033 sec
Total time needed                          ...    0.090 sec

Time for model grid setup =    0.263 sec

------------------------------
INITIAL GUESS: MODEL POTENTIAL
------------------------------
Loading Hartree-Fock densities                     ... done
Calculating cut-offs                               ... done
Initializing the effective Hamiltonian             ... done
Setting up the integral package (SHARK)            ... done
Starting the Coulomb interaction                   ... done (   0.3 sec)
Reading the grid                                   ... done
Mapping shells                                     ... done
Starting the XC term evaluation                    ... done (   0.2 sec)
  promolecular density results
     # of electrons  =    143.993312276
     EX              =   -131.777176086
     EC              =     -4.921206199
     EX+EC           =   -136.698382285
Transforming the Hamiltonian                       ... done (   0.0 sec)
Diagonalizing the Hamiltonian                      ... done (   0.1 sec)
Back transforming the eigenvectors                 ... done (   0.0 sec)
Now organizing SCF variables                       ... done
                      ------------------
                      INITIAL GUESS DONE (   0.9 sec)
                      ------------------
-------------------
DFT GRID GENERATION
-------------------

General Integration Accuracy     IntAcc      ... 4.388
Radial Grid Type                 RadialGrid  ... OptM3 with GC (2021)
Angular Grid (max. ang.)         AngularGrid ... 4 (Lebedev-302)
Angular grid pruning method      GridPruning ... 4 (adaptive)
Weight generation scheme         WeightScheme... Becke
Basis function cutoff            BFCut       ... 1.0000e-10
Integration weight cutoff        WCut        ... 1.0000e-14
Angular grids for H and He will be reduced by one unit
Partially contracted basis set               ... off
Rotationally invariant grid construction     ... off

Total number of grid points                  ...   157288
Total number of batches                      ...     2473
Average number of points per batch           ...       63
Average number of grid points per atom       ...     4915
Time for grid setup =    1.219 sec

--------------------
COSX GRID GENERATION
--------------------

GRIDX 1
-------
General Integration Accuracy     IntAcc      ... 3.816
Radial Grid Type                 RadialGrid  ... OptM3 with GC (2021)
Angular Grid (max. ang.)         AngularGrid ... 1 (Lebedev-50)
Angular grid pruning method      GridPruning ... 4 (adaptive)
Weight generation scheme         WeightScheme... Becke
Basis function cutoff            BFCut       ... 1.0000e-10
Integration weight cutoff        WCut        ... 1.0000e-14
Angular grids for H and He will be reduced by one unit
Partially contracted basis set               ... on
Rotationally invariant grid construction     ... off

Total number of grid points                  ...    19914
Total number of batches                      ...      325
Average number of points per batch           ...       61
Average number of grid points per atom       ...      622
UseSFitting                                  ... on

GRIDX 2
-------
General Integration Accuracy     IntAcc      ... 4.020
Radial Grid Type                 RadialGrid  ... OptM3 with GC (2021)
Angular Grid (max. ang.)         AngularGrid ... 2 (Lebedev-110)
Angular grid pruning method      GridPruning ... 4 (adaptive)
Weight generation scheme         WeightScheme... Becke
Basis function cutoff            BFCut       ... 1.0000e-10
Integration weight cutoff        WCut        ... 1.0000e-14
Angular grids for H and He will be reduced by one unit
Partially contracted basis set               ... on
Rotationally invariant grid construction     ... off

Total number of grid points                  ...    43871
Total number of batches                      ...      700
Average number of points per batch           ...       62
Average number of grid points per atom       ...     1371
UseSFitting                                  ... on

GRIDX 3
-------
General Integration Accuracy     IntAcc      ... 4.338
Radial Grid Type                 RadialGrid  ... OptM3 with GC (2021)
Angular Grid (max. ang.)         AngularGrid ... 3 (Lebedev-194)
Angular grid pruning method      GridPruning ... 4 (adaptive)
Weight generation scheme         WeightScheme... Becke
Basis function cutoff            BFCut       ... 1.0000e-10
Integration weight cutoff        WCut        ... 1.0000e-14
Angular grids for H and He will be reduced by one unit
Partially contracted basis set               ... on
Rotationally invariant grid construction     ... off

Total number of grid points                  ...    96874
Total number of batches                      ...     1529
Average number of points per batch           ...       63
Average number of grid points per atom       ...     3027
UseSFitting                                  ... on

Time for X-Grid setup             =    1.255 sec


--------------------
CPCM SOLVATION MODEL
--------------------
CPCM parameters:
  Epsilon                                         ...      38.3000
  Refrac                                          ...       1.4300
  Rsolv                                           ...       1.3000
  Surface type                                    ... GAUSSIAN VDW
  Epsilon function type                           ...         CPCM
Radii:
 Radius for S  used is    4.0818 Bohr (=   2.1600 Ang.)
 Radius for F  used is    3.3335 Bohr (=   1.7640 Ang.)
 Radius for O  used is    3.4469 Bohr (=   1.8240 Ang.)
 Radius for C  used is    3.8550 Bohr (=   2.0400 Ang.)
 Radius for H  used is    2.4944 Bohr (=   1.3200 Ang.)
Calculating surface                               ...        done! (  0.0s)
GEPOL surface points                              ...         1782
GEPOL Volume                                      ...    2147.5489
GEPOL Surface-area                                ...    1140.5738
Calculating surface distance matrix               ...        done! (  0.0s)
Performing Cholesky decomposition & store         ...        done! (  0.2s)
Overall time for CPCM initialization              ...                 0.2s
--------------
SCF ITERATIONS
--------------
ITER       Energy         Delta-E        Max-DP      RMS-DP      [F,P]     Damp
               ***  Starting incremental Fock matrix formation  ***
  0  -1227.3965400462   0.000000000000 0.24159923  0.00158035  0.2639499 0.7000
  1  -1227.5724064321  -0.175866385984 0.25128031  0.00147815  0.1181463 0.7000
                               ***Turning on DIIS***
  2  -1227.6545184023  -0.082111970134 0.36265767  0.00266490  0.0450384 0.0000
  3  -1227.7834130416  -0.128894639276 0.23866083  0.00113503  0.0606560 0.0000
  4  -1227.8082352874  -0.024822245878 0.05539307  0.00031208  0.0117483 0.0000
  5  -1227.8094125435  -0.001177256084 0.04119041  0.00021238  0.0115631 0.0000
                      *** Initiating the SOSCF procedure ***
                           *** Shutting down DIIS ***
                      *** Re-Reading the Fockian *** 
                      *** Removing any level shift *** 
ITER      Energy       Delta-E        Grad      Rot      Max-DP    RMS-DP
  6  -1227.80973178  -0.0003192336  0.001743  0.001743  0.013896  0.000086
               *** Restarting incremental Fock matrix formation ***
  7  -1227.80982024  -0.0000884664  0.001002  0.004180  0.019048  0.000209
  8  -1227.80987244  -0.0000522009  0.000496  0.004954  0.008515  0.000105
  9  -1227.80988095  -0.0000085060  0.000242  0.001069  0.007900  0.000082
 10  -1227.80988737  -0.0000064149  0.000092  0.000280  0.001652  0.000014
 11  -1227.80988749  -0.0000001200  0.000056  0.000185  0.000825  0.000010
                  ***Gradient check signals convergence***
              ***Rediagonalizing the Fockian in SOSCF/NRSCF***

               *****************************************************
               *                     SUCCESS                       *
               *           SCF CONVERGED AFTER  12 CYCLES          *
               *****************************************************

Old exchange energy                            =    -36.764322130 Eh
New exchange energy                            =    -36.764313350 Eh
Exchange energy change after final integration =      0.000008780 Eh
Total energy after final integration           =  -1227.809879009 Eh
Final COS-X integration done in                =    28.612 sec

----------------
TOTAL SCF ENERGY
----------------

Total Energy       :        -1227.80987901 Eh          -33410.40536 eV

Components:
Nuclear Repulsion  :         1397.81729981 Eh           38036.54247 eV
Electronic Energy  :        -2625.62717882 Eh          -71446.94783 eV
One Electron Energy:        -4457.22409501 Eh         -121287.23375 eV
Two Electron Energy:         1831.59691620 Eh           49840.28592 eV
Max COSX asymmetry :            0.00000245 Eh               0.00007 eV
CPCM Dielectric    :           -0.01958672 Eh              -0.53298 eV

Virial components:
Potential Energy   :        -2451.40289543 Eh          -66706.06406 eV
Kinetic Energy     :         1223.59301642 Eh           33295.65870 eV
Virial Ratio       :            2.00344630


DFT components:
N(Alpha)           :       72.000084076435 electrons
N(Beta)            :       72.000084076435 electrons
N(Total)           :      144.000168152869 electrons
E(XC)              :     -102.592649382879 Eh       
DFET-embed. en.    :        0.000000000000 Eh       
CPCM Solvation Model Properties:
Surface-charge          :           -0.03455042
Charge-correction       :           -0.00012837 Eh              -0.00349 eV
Free-energy (cav+disp)  :  This term is not implemented in the current solvation scheme

---------------
SCF CONVERGENCE
---------------

  Last Energy change         ...   -3.0337e-07  Tolerance :   1.0000e-06
  Last MAX-Density change    ...    2.3315e-15  Tolerance :   1.0000e-05
  Last RMS-Density change    ...    2.0153e-17  Tolerance :   1.0000e-06
  Last Orbital Gradient      ...    1.1404e-05  Tolerance :   5.0000e-05
  Last Orbital Rotation      ...    6.6784e-05  Tolerance :   5.0000e-05

             **** THE GBW FILE WAS UPDATED (b.gbw) ****
             **** DENSITY b.scfp WAS UPDATED ****
             **** ENERGY FILE WAS UPDATED (b.en.tmp) ****
             **** THE GBW FILE WAS UPDATED (b.gbw) ****
             **** DENSITY b.scfp WAS UPDATED ****
----------------
ORBITAL ENERGIES
----------------

  NO   OCC          E(Eh)            E(eV) 
   0   2.0000     -88.960715     -2420.7441 
   1   2.0000     -24.781051      -674.3267 
   2   2.0000     -19.246364      -523.7202 
   3   2.0000     -19.186514      -522.0916 
   4   2.0000     -10.354775      -281.7677 
   5   2.0000     -10.346609      -281.5455 
   6   2.0000     -10.332672      -281.1663 
   7   2.0000     -10.295876      -280.1650 
   8   2.0000     -10.287709      -279.9428 
   9   2.0000     -10.279291      -279.7137 
  10   2.0000     -10.277079      -279.6535 
  11   2.0000     -10.267013      -279.3796 
  12   2.0000     -10.266510      -279.3659 
  13   2.0000     -10.262840      -279.2661 
  14   2.0000     -10.260264      -279.1960 
  15   2.0000     -10.258528      -279.1487 
  16   2.0000     -10.253524      -279.0126 
  17   2.0000     -10.251705      -278.9631 
  18   2.0000     -10.239900      -278.6418 
  19   2.0000      -8.038085      -218.7274 
  20   2.0000      -6.001767      -163.3164 
  21   2.0000      -5.997601      -163.2030 
  22   2.0000      -5.995146      -163.1362 
  23   2.0000      -1.321830       -35.9688 
  24   2.0000      -1.165226       -31.7074 
  25   2.0000      -1.122843       -30.5541 
  26   2.0000      -0.979294       -26.6479 
  27   2.0000      -0.961853       -26.1734 
  28   2.0000      -0.898104       -24.4387 
  29   2.0000      -0.865373       -23.5480 
  30   2.0000      -0.850994       -23.1567 
  31   2.0000      -0.847233       -23.0544 
  32   2.0000      -0.821689       -22.3593 
  33   2.0000      -0.795544       -21.6478 
  34   2.0000      -0.761318       -20.7165 
  35   2.0000      -0.731544       -19.9063 
  36   2.0000      -0.712963       -19.4007 
  37   2.0000      -0.691428       -18.8147 
  38   2.0000      -0.656525       -17.8650 
  39   2.0000      -0.632479       -17.2106 
  40   2.0000      -0.625054       -17.0086 
  41   2.0000      -0.609741       -16.5919 
  42   2.0000      -0.594105       -16.1664 
  43   2.0000      -0.586640       -15.9633 
  44   2.0000      -0.575179       -15.6514 
  45   2.0000      -0.562663       -15.3108 
  46   2.0000      -0.547712       -14.9040 
  47   2.0000      -0.546939       -14.8830 
  48   2.0000      -0.529161       -14.3992 
  49   2.0000      -0.519370       -14.1328 
  50   2.0000      -0.512469       -13.9450 
  51   2.0000      -0.500240       -13.6122 
  52   2.0000      -0.497154       -13.5282 
  53   2.0000      -0.492247       -13.3947 
  54   2.0000      -0.488384       -13.2896 
  55   2.0000      -0.478036       -13.0080 
  56   2.0000      -0.462912       -12.5965 
  57   2.0000      -0.459400       -12.5009 
  58   2.0000      -0.455888       -12.4053 
  59   2.0000      -0.448799       -12.2124 
  60   2.0000      -0.438721       -11.9382 
  61   2.0000      -0.435252       -11.8438 
  62   2.0000      -0.431944       -11.7538 
  63   2.0000      -0.415208       -11.2984 
  64   2.0000      -0.404329       -11.0024 
  65   2.0000      -0.396871       -10.7994 
  66   2.0000      -0.369308       -10.0494 
  67   2.0000      -0.336554        -9.1581 
  68   2.0000      -0.323806        -8.8112 
  69   2.0000      -0.310979        -8.4622 
  70   2.0000      -0.296288        -8.0624 
  71   2.0000      -0.276069        -7.5122 
  72   0.0000      -0.052951        -1.4409 
  73   0.0000       0.012151         0.3306 
  74   0.0000       0.024606         0.6696 
  75   0.0000       0.063816         1.7365 
  76   0.0000       0.065743         1.7890 
  77   0.0000       0.091435         2.4881 
  78   0.0000       0.092270         2.5108 
  79   0.0000       0.095942         2.6107 
  80   0.0000       0.103343         2.8121 
  81   0.0000       0.107238         2.9181 
  82   0.0000       0.117010         3.1840 
  83   0.0000       0.119408         3.2492 
  84   0.0000       0.127031         3.4567 
  85   0.0000       0.130155         3.5417 
  86   0.0000       0.140605         3.8261 
  87   0.0000       0.141474         3.8497 
  88   0.0000       0.152504         4.1499 
  89   0.0000       0.155840         4.2406 
  90   0.0000       0.162139         4.4120 
  91   0.0000       0.165682         4.5084 
  92   0.0000       0.168029         4.5723 
  93   0.0000       0.179614         4.8875 
  94   0.0000       0.179828         4.8934 
  95   0.0000       0.189120         5.1462 
  96   0.0000       0.197009         5.3609 
  97   0.0000       0.200682         5.4608 
  98   0.0000       0.208696         5.6789 
  99   0.0000       0.212956         5.7948 
 100   0.0000       0.229079         6.2336 
 101   0.0000       0.231227         6.2920 
 102   0.0000       0.232954         6.3390 
 103   0.0000       0.242536         6.5997 
 104   0.0000       0.244092         6.6421 
 105   0.0000       0.246356         6.7037 
 106   0.0000       0.254391         6.9223 
 107   0.0000       0.259054         7.0492 
 108   0.0000       0.262327         7.1383 
 109   0.0000       0.265677         7.2294 
 110   0.0000       0.273530         7.4431 
 111   0.0000       0.274928         7.4812 
 112   0.0000       0.291659         7.9365 
 113   0.0000       0.294737         8.0202 
 114   0.0000       0.297986         8.1086 
 115   0.0000       0.301849         8.2137 
 116   0.0000       0.304304         8.2805 
 117   0.0000       0.308596         8.3973 
 118   0.0000       0.318993         8.6802 
 119   0.0000       0.324814         8.8386 
 120   0.0000       0.330909         9.0045 
 121   0.0000       0.333244         9.0680 
 122   0.0000       0.338674         9.2158 
 123   0.0000       0.342921         9.3313 
 124   0.0000       0.353513         9.6196 
 125   0.0000       0.359765         9.7897 
 126   0.0000       0.366475         9.9723 
 127   0.0000       0.367448         9.9988 
 128   0.0000       0.374497        10.1906 
 129   0.0000       0.382816        10.4170 
 130   0.0000       0.388584        10.5739 
 131   0.0000       0.391507        10.6535 
 132   0.0000       0.397225        10.8090 
 133   0.0000       0.400374        10.8947 
 134   0.0000       0.406201        11.0533 
 135   0.0000       0.413669        11.2565 
 136   0.0000       0.418076        11.3764 
 137   0.0000       0.421411        11.4672 
 138   0.0000       0.428005        11.6466 
 139   0.0000       0.431199        11.7335 
 140   0.0000       0.437627        11.9084 
 141   0.0000       0.444409        12.0930 
 142   0.0000       0.446838        12.1591 
 143   0.0000       0.450430        12.2568 
 144   0.0000       0.451092        12.2748 
 145   0.0000       0.456816        12.4306 
 146   0.0000       0.462388        12.5822 
 147   0.0000       0.464620        12.6429 
 148   0.0000       0.469479        12.7752 
 149   0.0000       0.476637        12.9700 
 150   0.0000       0.492868        13.4116 
 151   0.0000       0.494031        13.4433 
 152   0.0000       0.497435        13.5359 
 153   0.0000       0.501355        13.6426 
 154   0.0000       0.507563        13.8115 
 155   0.0000       0.514138        13.9904 
 156   0.0000       0.521033        14.1780 
 157   0.0000       0.522729        14.2242 
 158   0.0000       0.527537        14.3550 
 159   0.0000       0.530380        14.4324 
 160   0.0000       0.531746        14.4695 
 161   0.0000       0.539132        14.6705 
 162   0.0000       0.543616        14.7925 
 163   0.0000       0.549745        14.9593 
 164   0.0000       0.551036        14.9945 
 165   0.0000       0.556774        15.1506 
 166   0.0000       0.568284        15.4638 
 167   0.0000       0.570169        15.5151 
 168   0.0000       0.580775        15.8037 
 169   0.0000       0.589428        16.0392 
 170   0.0000       0.603691        16.4273 
 171   0.0000       0.611907        16.6508 
 172   0.0000       0.615748        16.7553 
 173   0.0000       0.623116        16.9559 
 174   0.0000       0.634271        17.2594 
 175   0.0000       0.639109        17.3910 
 176   0.0000       0.649924        17.6853 
 177   0.0000       0.652949        17.7676 
 178   0.0000       0.665542        18.1103 
 179   0.0000       0.676592        18.4110 
 180   0.0000       0.681201        18.5364 
 181   0.0000       0.686252        18.6739 
 182   0.0000       0.691450        18.8153 
 183   0.0000       0.700213        19.0538 
 184   0.0000       0.705821        19.2064 
 185   0.0000       0.709873        19.3166 
 186   0.0000       0.720049        19.5935 
 187   0.0000       0.723541        19.6886 
 188   0.0000       0.730595        19.8805 
 189   0.0000       0.734668        19.9913 
 190   0.0000       0.739069        20.1111 
 191   0.0000       0.745088        20.2749 
 192   0.0000       0.756574        20.5874 
 193   0.0000       0.760380        20.6910 
 194   0.0000       0.762975        20.7616 
 195   0.0000       0.771242        20.9866 
 196   0.0000       0.775322        21.0976 
 197   0.0000       0.784729        21.3536 
 198   0.0000       0.791264        21.5314 
 199   0.0000       0.798854        21.7379 
 200   0.0000       0.804637        21.8953 
 201   0.0000       0.810998        22.0684 
 202   0.0000       0.827012        22.5041 
 203   0.0000       0.838737        22.8232 
 204   0.0000       0.849105        23.1053 
 205   0.0000       0.860979        23.4284 
 206   0.0000       0.868957        23.6455 
 207   0.0000       0.876981        23.8639 
 208   0.0000       0.887475        24.1494 
 209   0.0000       0.890518        24.2322 
 210   0.0000       0.897048        24.4099 
 211   0.0000       0.903194        24.5772 
 212   0.0000       0.912566        24.8322 
 213   0.0000       0.915395        24.9092 
 214   0.0000       0.917035        24.9538 
 215   0.0000       0.930077        25.3087 
 216   0.0000       0.934320        25.4241 
 217   0.0000       0.945912        25.7396 
 218   0.0000       0.950220        25.8568 
 219   0.0000       0.961669        26.1683 
 220   0.0000       0.970746        26.4153 
 221   0.0000       0.982905        26.7462 
 222   0.0000       0.991349        26.9760 
 223   0.0000       1.001941        27.2642 
 224   0.0000       1.014662        27.6104 
 225   0.0000       1.017724        27.6937 
 226   0.0000       1.023734        27.8572 
 227   0.0000       1.034517        28.1506 
 228   0.0000       1.043448        28.3937 
 229   0.0000       1.049486        28.5580 
 230   0.0000       1.062438        28.9104 
 231   0.0000       1.082899        29.4672 
 232   0.0000       1.085209        29.5300 
 233   0.0000       1.087938        29.6043 
 234   0.0000       1.100134        29.9362 
 235   0.0000       1.109718        30.1970 
 236   0.0000       1.117242        30.4017 
 237   0.0000       1.119190        30.4547 
 238   0.0000       1.133784        30.8518 
 239   0.0000       1.134260        30.8648 
 240   0.0000       1.141709        31.0675 
 241   0.0000       1.153265        31.3819 
 242   0.0000       1.165045        31.7025 
 243   0.0000       1.171944        31.8902 
 244   0.0000       1.190162        32.3859 
 245   0.0000       1.197958        32.5981 
 246   0.0000       1.209288        32.9064 
 247   0.0000       1.221734        33.2451 
 248   0.0000       1.241045        33.7705 
 249   0.0000       1.248346        33.9692 
 250   0.0000       1.254427        34.1347 
 251   0.0000       1.268611        34.5207 
 252   0.0000       1.280426        34.8422 
 253   0.0000       1.290794        35.1243 
 254   0.0000       1.298501        35.3340 
 255   0.0000       1.305524        35.5251 
 256   0.0000       1.315741        35.8031 
 257   0.0000       1.336030        36.3552 
 258   0.0000       1.345589        36.6153 
 259   0.0000       1.367537        37.2126 
 260   0.0000       1.370747        37.2999 
 261   0.0000       1.384701        37.6796 
 262   0.0000       1.392276        37.8858 
 263   0.0000       1.397246        38.0210 
 264   0.0000       1.408063        38.3153 
 265   0.0000       1.414290        38.4848 
 266   0.0000       1.433121        38.9972 
 267   0.0000       1.435804        39.0702 
 268   0.0000       1.442926        39.2640 
 269   0.0000       1.447124        39.3782 
 270   0.0000       1.455123        39.5959 
 271   0.0000       1.460157        39.7329 
 272   0.0000       1.489718        40.5373 
 273   0.0000       1.501911        40.8691 
 274   0.0000       1.511141        41.1202 
 275   0.0000       1.517802        41.3015 
 276   0.0000       1.533126        41.7185 
 277   0.0000       1.534578        41.7580 
 278   0.0000       1.538342        41.8604 
 279   0.0000       1.550124        42.1810 
 280   0.0000       1.560504        42.4635 
 281   0.0000       1.578536        42.9541 
 282   0.0000       1.584203        43.1083 
 283   0.0000       1.590829        43.2887 
 284   0.0000       1.594233        43.3813 
 285   0.0000       1.599548        43.5259 
 286   0.0000       1.611046        43.8388 
 287   0.0000       1.614774        43.9402 
 288   0.0000       1.618466        44.0407 
 289   0.0000       1.621245        44.1163 
 290   0.0000       1.623729        44.1839 
 291   0.0000       1.642044        44.6823 
 292   0.0000       1.649667        44.8897 
 293   0.0000       1.655225        45.0410 
 294   0.0000       1.655878        45.0587 
 295   0.0000       1.669397        45.4266 
 296   0.0000       1.673021        45.5252 
 297   0.0000       1.681644        45.7599 
 298   0.0000       1.690368        45.9973 
 299   0.0000       1.693583        46.0847 
 300   0.0000       1.699662        46.2502 
 301   0.0000       1.711025        46.5594 
 302   0.0000       1.719012        46.7767 
 303   0.0000       1.734081        47.1868 
 304   0.0000       1.745322        47.4926 
 305   0.0000       1.751517        47.6612 
 306   0.0000       1.757923        47.8355 
 307   0.0000       1.778064        48.3836 
 308   0.0000       1.779521        48.4232 
 309   0.0000       1.791774        48.7566 
 310   0.0000       1.794820        48.8395 
 311   0.0000       1.798515        48.9401 
 312   0.0000       1.817158        49.4474 
 313   0.0000       1.829944        49.7953 
 314   0.0000       1.846368        50.2422 
 315   0.0000       1.852137        50.3992 
 316   0.0000       1.862540        50.6823 
 317   0.0000       1.876644        51.0661 
 318   0.0000       1.896995        51.6198 
 319   0.0000       1.906459        51.8774 
 320   0.0000       1.914592        52.0987 
 321   0.0000       1.942868        52.8681 
 322   0.0000       1.953281        53.1515 
 323   0.0000       1.964193        53.4484 
 324   0.0000       1.982816        53.9552 
 325   0.0000       1.988226        54.1024 
 326   0.0000       2.012639        54.7667 
 327   0.0000       2.017661        54.9034 
 328   0.0000       2.029275        55.2194 
 329   0.0000       2.039334        55.4931 
 330   0.0000       2.051297        55.8186 
 331   0.0000       2.064163        56.1687 
 332   0.0000       2.065673        56.2098 
 333   0.0000       2.075371        56.4737 
 334   0.0000       2.089364        56.8545 
 335   0.0000       2.108123        57.3650 
 336   0.0000       2.119690        57.6797 
 337   0.0000       2.131410        57.9986 
 338   0.0000       2.158063        58.7239 
 339   0.0000       2.181317        59.3567 
 340   0.0000       2.190953        59.6189 
 341   0.0000       2.195554        59.7441 
 342   0.0000       2.204865        59.9974 
 343   0.0000       2.209603        60.1264 
 344   0.0000       2.230867        60.7050 
 345   0.0000       2.239033        60.9272 
 346   0.0000       2.243386        61.0456 
 347   0.0000       2.266301        61.6692 
 348   0.0000       2.279102        62.0175 
 349   0.0000       2.283956        62.1496 
 350   0.0000       2.298888        62.5559 
 351   0.0000       2.330171        63.4072 
 352   0.0000       2.332356        63.4666 
 353   0.0000       2.350982        63.9735 
 354   0.0000       2.353491        64.0418 
 355   0.0000       2.369079        64.4659 
 356   0.0000       2.375873        64.6508 
 357   0.0000       2.397723        65.2454 
 358   0.0000       2.406769        65.4915 
 359   0.0000       2.412087        65.6362 
 360   0.0000       2.431241        66.1574 
 361   0.0000       2.434138        66.2363 
 362   0.0000       2.459812        66.9349 
 363   0.0000       2.470139        67.2159 
 364   0.0000       2.472109        67.2695 
 365   0.0000       2.481615        67.5282 
 366   0.0000       2.486988        67.6744 
 367   0.0000       2.504420        68.1487 
 368   0.0000       2.509153        68.2775 
 369   0.0000       2.527106        68.7661 
 370   0.0000       2.533223        68.9325 
 371   0.0000       2.548238        69.3411 
 372   0.0000       2.557525        69.5938 
 373   0.0000       2.563758        69.7634 
 374   0.0000       2.571338        69.9697 
 375   0.0000       2.592016        70.5323 
 376   0.0000       2.613834        71.1260 
 377   0.0000       2.623698        71.3945 
 378   0.0000       2.631041        71.5943 
 379   0.0000       2.645084        71.9764 
 380   0.0000       2.685407        73.0736 
 381   0.0000       2.687431        73.1287 
 382   0.0000       2.714028        73.8525 
 383   0.0000       2.728935        74.2581 
 384   0.0000       2.733460        74.3812 
 385   0.0000       2.738251        74.5116 
 386   0.0000       2.747771        74.7706 
 387   0.0000       2.758355        75.0587 
 388   0.0000       2.775778        75.5328 
 389   0.0000       2.780656        75.6655 
 390   0.0000       2.789814        75.9147 
 391   0.0000       2.811897        76.5156 
 392   0.0000       2.814061        76.5745 
 393   0.0000       2.830846        77.0312 
 394   0.0000       2.842512        77.3487 
 395   0.0000       2.849287        77.5330 
 396   0.0000       2.852409        77.6180 
 397   0.0000       2.871274        78.1313 
 398   0.0000       2.878256        78.3213 
 399   0.0000       2.895336        78.7861 
 400   0.0000       2.898311        78.8670 
 401   0.0000       2.920076        79.4593 
 402   0.0000       2.927029        79.6485 
 403   0.0000       2.931516        79.7706 
 404   0.0000       2.939063        79.9760 
 405   0.0000       2.953697        80.3742 
 406   0.0000       2.970026        80.8185 
 407   0.0000       2.976710        81.0004 
 408   0.0000       2.993022        81.4443 
 409   0.0000       3.001821        81.6837 
 410   0.0000       3.011425        81.9450 
 411   0.0000       3.016013        82.0699 
 412   0.0000       3.026718        82.3612 
 413   0.0000       3.038100        82.6709 
 414   0.0000       3.041387        82.7604 
 415   0.0000       3.043903        82.8288 
 416   0.0000       3.050455        83.0071 
 417   0.0000       3.057097        83.1878 
 418   0.0000       3.072984        83.6201 
 419   0.0000       3.084749        83.9403 
 420   0.0000       3.103106        84.4398 
 421   0.0000       3.108582        84.5888 
 422   0.0000       3.114310        84.7447 
 423   0.0000       3.123363        84.9910 
 424   0.0000       3.137984        85.3889 
 425   0.0000       3.140354        85.4534 
 426   0.0000       3.149564        85.7040 
 427   0.0000       3.158945        85.9593 
 428   0.0000       3.168123        86.2090 
 429   0.0000       3.174826        86.3914 
 430   0.0000       3.185705        86.6874 
 431   0.0000       3.189275        86.7846 
 432   0.0000       3.193288        86.8938 
 433   0.0000       3.215363        87.4945 
 434   0.0000       3.226327        87.7928 
 435   0.0000       3.233649        87.9921 
 436   0.0000       3.241515        88.2061 
 437   0.0000       3.252139        88.4952 
 438   0.0000       3.267671        88.9178 
 439   0.0000       3.272522        89.0499 
 440   0.0000       3.289738        89.5183 
 441   0.0000       3.293212        89.6128 
 442   0.0000       3.307343        89.9974 
 443   0.0000       3.319107        90.3175 
 444   0.0000       3.343868        90.9913 
 445   0.0000       3.354840        91.2898 
 446   0.0000       3.355972        91.3206 
 447   0.0000       3.359254        91.4099 
 448   0.0000       3.378623        91.9370 
 449   0.0000       3.395598        92.3989 
 450   0.0000       3.405702        92.6739 
 451   0.0000       3.418603        93.0249 
 452   0.0000       3.421361        93.1000 
 453   0.0000       3.440414        93.6184 
 454   0.0000       3.457136        94.0734 
 455   0.0000       3.460435        94.1632 
 456   0.0000       3.476390        94.5974 
 457   0.0000       3.481659        94.7408 
 458   0.0000       3.497658        95.1761 
 459   0.0000       3.513940        95.6192 
 460   0.0000       3.521978        95.8379 
 461   0.0000       3.546701        96.5107 
 462   0.0000       3.559214        96.8511 
 463   0.0000       3.585021        97.5534 
 464   0.0000       3.590900        97.7134 
 465   0.0000       3.591802        97.7379 
 466   0.0000       3.603101        98.0454 
 467   0.0000       3.612234        98.2939 
 468   0.0000       3.628044        98.7241 
 469   0.0000       3.647185        99.2450 
 470   0.0000       3.665828        99.7523 
 471   0.0000       3.683726       100.2393 
 472   0.0000       3.705937       100.8437 
 473   0.0000       3.733151       101.5842 
 474   0.0000       3.769518       102.5738 
 475   0.0000       3.804212       103.5179 
 476   0.0000       3.811030       103.7034 
 477   0.0000       3.815976       103.8380 
 478   0.0000       3.831925       104.2720 
 479   0.0000       3.856717       104.9466 
 480   0.0000       3.886415       105.7547 
 481   0.0000       3.897041       106.0439 
 482   0.0000       3.916726       106.5795 
 483   0.0000       3.919429       106.6531 
 484   0.0000       3.960274       107.7645 
 485   0.0000       3.977895       108.2440 
 486   0.0000       4.005705       109.0008 
 487   0.0000       4.025682       109.5444 
 488   0.0000       4.084562       111.1466 
 489   0.0000       4.110812       111.8609 
 490   0.0000       4.127197       112.3067 
 491   0.0000       4.147133       112.8492 
 492   0.0000       4.188568       113.9767 
 493   0.0000       4.205880       114.4478 
 494   0.0000       4.221819       114.8815 
 495   0.0000       4.266364       116.0937 
 496   0.0000       4.319996       117.5531 
 497   0.0000       4.323556       117.6499 
 498   0.0000       4.334840       117.9570 
 499   0.0000       4.483320       121.9973 
 500   0.0000       4.518271       122.9484 
 501   0.0000       4.567777       124.2955 
 502   0.0000       4.767636       129.7340 
 503   0.0000       6.416528       174.6026 
 504   0.0000       6.538078       177.9101 
 505   0.0000       6.560587       178.5227 
 506   0.0000       6.625782       180.2967 
 507   0.0000       6.638105       180.6320 
 508   0.0000       6.686926       181.9605 
 509   0.0000       6.792457       184.8322 
 510   0.0000       6.871521       186.9836 
 511   0.0000       6.992254       190.2689 
 512   0.0000       7.146931       194.4779 
 513   0.0000       8.388265       228.2563 
 514   0.0000       8.504435       231.4174 
 515   0.0000       8.557454       232.8602 
 516   0.0000       8.843961       240.6564 
 517   0.0000       8.898914       242.1518 
 518   0.0000       8.905032       242.3182 
 519   0.0000       9.254776       251.8353 
 520   0.0000       9.282723       252.5957 
 521   0.0000      19.536579       531.6173 
 522   0.0000      21.673507       589.7661 
 523   0.0000      21.722056       591.0872 
 524   0.0000      22.058971       600.2551 
 525   0.0000      22.108520       601.6034 
 526   0.0000      22.139640       602.4502 
 527   0.0000      22.244142       605.2939 
 528   0.0000      22.248219       605.4048 
 529   0.0000      22.282013       606.3244 
 530   0.0000      22.389101       609.2384 
 531   0.0000      22.463263       611.2565 
 532   0.0000      22.498950       612.2276 
 533   0.0000      22.606350       615.1501 
 534   0.0000      22.664706       616.7380 
 535   0.0000      22.759487       619.3171 
 536   0.0000      23.056825       627.4081 
 537   0.0000      43.898260      1194.5324 
 538   0.0000      43.944177      1195.7819 
 539   0.0000      57.168208      1555.6260 

                    ********************************
                    * MULLIKEN POPULATION ANALYSIS *
                    ********************************

-----------------------
MULLIKEN ATOMIC CHARGES
-----------------------
   0 S :    0.274812
   1 F :   -0.278459
   2 O :   -0.571452
   3 O :   -0.410123
   4 C :    0.255463
   5 C :   -0.282798
   6 H :    0.145668
   7 C :    0.455121
   8 C :   -0.211309
   9 H :    0.124272
  10 C :   -0.225596
  11 H :    0.134784
  12 C :    0.106905
  13 C :    0.380668
  14 C :   -0.148155
  15 H :    0.144270
  16 C :   -0.196697
  17 H :    0.136902
  18 C :    0.165492
  19 C :   -0.355307
  20 H :    0.147660
  21 C :    0.129461
  22 C :   -0.313596
  23 H :    0.162322
  24 C :   -0.205362
  25 H :    0.164979
  26 H :    0.151121
  27 H :    0.151443
  28 C :   -0.469363
  29 H :    0.145842
  30 H :    0.145033
  31 H :    0.145998
Sum of atomic charges:    0.0000000

--------------------------------
MULLIKEN REDUCED ORBITAL CHARGES
--------------------------------
  0 S s       :     5.699002  s :     5.699002
      pz      :     3.008980  p :     9.883500
      px      :     3.319958
      py      :     3.554562
      dz2     :     0.037254  d :     0.142686
      dxz     :     0.027390
      dyz     :     0.031160
      dx2y2   :     0.024171
      dxy     :     0.022711
  1 F s       :     3.939321  s :     3.939321
      pz      :     1.665048  p :     5.322667
      px      :     1.758588
      py      :     1.899032
      dz2     :     0.004048  d :     0.016471
      dxz     :     0.006485
      dyz     :     0.002374
      dx2y2   :     0.001725
      dxy     :     0.001839
  2 O s       :     3.870403  s :     3.870403
      pz      :     1.479018  p :     4.667957
      px      :     1.680191
      py      :     1.508747
      dz2     :     0.010752  d :     0.033092
      dxz     :     0.009334
      dyz     :     0.009832
      dx2y2   :     0.001830
      dxy     :     0.001345
  3 O s       :     3.792266  s :     3.792266
      pz      :     1.544521  p :     4.574021
      px      :     1.455130
      py      :     1.574369
      dz2     :     0.009921  d :     0.043835
      dxz     :     0.006980
      dyz     :     0.008023
      dx2y2   :     0.010289
      dxy     :     0.008623
  4 C s       :     3.060556  s :     3.060556
      pz      :     0.749738  p :     2.466617
      px      :     0.781791
      py      :     0.935088
      dz2     :     0.055423  d :     0.217364
      dxz     :     0.042670
      dyz     :     0.042145
      dx2y2   :     0.041750
      dxy     :     0.035375
  5 C s       :     3.276204  s :     3.276204
      pz      :     0.969767  p :     2.948588
      px      :     0.940525
      py      :     1.038296
      dz2     :     0.011415  d :     0.058006
      dxz     :     0.011650
      dyz     :     0.007260
      dx2y2   :     0.011222
      dxy     :     0.016459
  6 H s       :     0.827013  s :     0.827013
      pz      :     0.013695  p :     0.027319
      px      :     0.004115
      py      :     0.009509
  7 C s       :     2.940095  s :     2.940095
      pz      :     0.859772  p :     2.416281
      px      :     0.723110
      py      :     0.833400
      dz2     :     0.031939  d :     0.188503
      dxz     :     0.057743
      dyz     :     0.027512
      dx2y2   :     0.039409
      dxy     :     0.031901
  8 C s       :     3.251783  s :     3.251783
      pz      :     0.947056  p :     2.889134
      px      :     0.946203
      py      :     0.995874
      dz2     :     0.012520  d :     0.070393
      dxz     :     0.016855
      dyz     :     0.012605
      dx2y2   :     0.017216
      dxy     :     0.011197
  9 H s       :     0.849619  s :     0.849619
      pz      :     0.011789  p :     0.026109
      px      :     0.009633
      py      :     0.004686
 10 C s       :     3.256924  s :     3.256924
      pz      :     0.959269  p :     2.875288
      px      :     0.962741
      py      :     0.953277
      dz2     :     0.015029  d :     0.093384
      dxz     :     0.027332
      dyz     :     0.012938
      dx2y2   :     0.019551
      dxy     :     0.018534
 11 H s       :     0.839099  s :     0.839099
      pz      :     0.012955  p :     0.026117
      px      :     0.004700
      py      :     0.008461
 12 C s       :     3.181010  s :     3.181010
      pz      :     0.810694  p :     2.599896
      px      :     0.813974
      py      :     0.975229
      dz2     :     0.031533  d :     0.112189
      dxz     :     0.017186
      dyz     :     0.021298
      dx2y2   :     0.021594
      dxy     :     0.020578
 13 C s       :     3.003624  s :     3.003624
      pz      :     0.785914  p :     2.392981
      px      :     0.858108
      py      :     0.748960
      dz2     :     0.056953  d :     0.222726
      dxz     :     0.071292
      dyz     :     0.045634
      dx2y2   :     0.022094
      dxy     :     0.026753
 14 C s       :     3.132557  s :     3.132557
      pz      :     0.964674  p :     2.955448
      px      :     0.984572
      py      :     1.006202
      dz2     :     0.006484  d :     0.060151
      dxz     :     0.021713
      dyz     :     0.009290
      dx2y2   :     0.012322
      dxy     :     0.010343
 15 H s       :     0.828243  s :     0.828243
      pz      :     0.015621  p :     0.027487
      px      :     0.006224
      py      :     0.005643
 16 C s       :     3.273964  s :     3.273964
      pz      :     0.934561  p :     2.818564
      px      :     0.990674
      py      :     0.893329
      dz2     :     0.023111  d :     0.104169
      dxz     :     0.023692
      dyz     :     0.011894
      dx2y2   :     0.027347
      dxy     :     0.018125
 17 H s       :     0.837608  s :     0.837608
      pz      :     0.016454  p :     0.025490
      px      :     0.004936
      py      :     0.004100
 18 C s       :     3.175278  s :     3.175278
      pz      :     0.689720  p :     2.525095
      px      :     0.857135
      py      :     0.978240
      dz2     :     0.029788  d :     0.134134
      dxz     :     0.033288
      dyz     :     0.024901
      dx2y2   :     0.025804
      dxy     :     0.020353
 19 C s       :     3.272586  s :     3.272586
      pz      :     1.001437  p :     2.979773
      px      :     0.997852
      py      :     0.980483
      dz2     :     0.023345  d :     0.102949
      dxz     :     0.029081
      dyz     :     0.016874
      dx2y2   :     0.019338
      dxy     :     0.014311
 20 H s       :     0.826388  s :     0.826388
      pz      :     0.015184  p :     0.025952
      px      :     0.005636
      py      :     0.005132
 21 C s       :     3.070872  s :     3.070872
      pz      :     0.871568  p :     2.640985
      px      :     0.860066
      py      :     0.909351
      dz2     :     0.026859  d :     0.158682
      dxz     :     0.053013
      dyz     :     0.034144
      dx2y2   :     0.024502
      dxy     :     0.020164
 22 C s       :     3.230385  s :     3.230385
      pz      :     1.013838  p :     2.999356
      px      :     0.957020
      py      :     1.028498
      dz2     :     0.023314  d :     0.083855
      dxz     :     0.011749
      dyz     :     0.010726
      dx2y2   :     0.020641
      dxy     :     0.017424
 23 H s       :     0.809808  s :     0.809808
      pz      :     0.017563  p :     0.027870
      px      :     0.004691
      py      :     0.005616
 24 C s       :     3.244961  s :     3.244961
      pz      :     0.833069  p :     2.883741
      px      :     1.101209
      py      :     0.949463
      dz2     :     0.023207  d :     0.076660
      dxz     :     0.012725
      dyz     :     0.016799
      dx2y2   :     0.012268
      dxy     :     0.011660
 25 H s       :     0.812544  s :     0.812544
      pz      :     0.003282  p :     0.022477
      px      :     0.014067
      py      :     0.005128
 26 H s       :     0.827040  s :     0.827040
      pz      :     0.011637  p :     0.021839
      px      :     0.003908
      py      :     0.006294
 27 H s       :     0.826709  s :     0.826709
      pz      :     0.003156  p :     0.021848
      px      :     0.007937
      py      :     0.010755
 28 C s       :     3.313162  s :     3.313162
      pz      :     1.078533  p :     3.103370
      px      :     0.975463
      py      :     1.049373
      dz2     :     0.007160  d :     0.052831
      dxz     :     0.008697
      dyz     :     0.005560
      dx2y2   :     0.017042
      dxy     :     0.014372
 29 H s       :     0.831281  s :     0.831281
      pz      :     0.006367  p :     0.022877
      px      :     0.009864
      py      :     0.006646
 30 H s       :     0.831568  s :     0.831568
      pz      :     0.013954  p :     0.023399
      px      :     0.004935
      py      :     0.004510
 31 H s       :     0.831135  s :     0.831135
      pz      :     0.006266  p :     0.022867
      px      :     0.003721
      py      :     0.012880


                     *******************************
                     * LOEWDIN POPULATION ANALYSIS *
                     *******************************

----------------------
LOEWDIN ATOMIC CHARGES
----------------------
   0 S :    0.744224
   1 F :    0.083537
   2 O :   -0.063736
   3 O :    0.110809
   4 C :   -0.123844
   5 C :   -0.101459
   6 H :    0.157683
   7 C :   -0.166850
   8 C :   -0.113193
   9 H :    0.148696
  10 C :   -0.069576
  11 H :    0.151783
  12 C :   -0.107121
  13 C :   -0.181034
  14 C :   -0.139581
  15 H :    0.139810
  16 C :   -0.093744
  17 H :    0.158385
  18 C :   -0.366400
  19 C :   -0.111136
  20 H :    0.149366
  21 C :   -0.220465
  22 C :   -0.363855
  23 H :    0.131331
  24 C :   -0.230416
  25 H :    0.114998
  26 H :    0.111476
  27 H :    0.111635
  28 C :   -0.237707
  29 H :    0.125676
  30 H :    0.124912
  31 H :    0.125793

-------------------------------
LOEWDIN REDUCED ORBITAL CHARGES
-------------------------------
  0 S s       :     5.204079  s :     5.204079
      pz      :     3.011280  p :     9.762288
      px      :     3.294586
      py      :     3.456422
      dz2     :     0.083241  d :     0.289409
      dxz     :     0.065336
      dyz     :     0.057315
      dx2y2   :     0.040866
      dxy     :     0.042651
  1 F s       :     3.626779  s :     3.626779
      pz      :     1.672103  p :     5.259984
      px      :     1.741452
      py      :     1.846429
      dz2     :     0.007511  d :     0.029700
      dxz     :     0.010636
      dyz     :     0.004722
      dx2y2   :     0.003446
      dxy     :     0.003385
  2 O s       :     3.433925  s :     3.433925
      pz      :     1.525905  p :     4.563817
      px      :     1.595436
      py      :     1.442476
      dz2     :     0.026039  d :     0.065994
      dxz     :     0.019523
      dyz     :     0.014964
      dx2y2   :     0.002354
      dxy     :     0.003114
  3 O s       :     3.286491  s :     3.286491
      pz      :     1.530722  p :     4.498325
[...]
  69   73507.9    136.0      3.19621   0.11178   0.03138  -0.01398
  70   73608.5    135.9      7.51158  -0.02124   0.04456  -0.12313
  71   73823.4    135.5      0.18372   0.33493   0.17684   0.13685
  72   74127.7    134.9     20.08869   0.42525   0.21652  -0.11267
  73   74220.1    134.7     -2.54107  -0.03504   0.10094  -0.02768
  74   74614.4    134.0      0.20702  -0.06317   0.18727   0.17602
  75   74879.7    133.5      8.20178  -0.01755   0.13492   0.23561
  76   74945.0    133.4      1.61522  -0.04092   0.05700   0.00426
  77   74960.3    133.4     15.23655   0.06070   0.24346   0.11938
  78   75262.4    132.9     28.12876   0.14942   0.34602  -0.21511
  79   75537.9    132.4    -49.81713  -0.40253   0.49099  -0.05244
  80   75706.9    132.1    -23.56223   0.30903  -0.18723   0.14693
  81   75807.3    131.9     -6.05577   0.11923   0.05784   0.56066
  82   75999.5    131.6    -21.45192   0.17559  -0.33674   0.01212
  83   76248.5    131.2     36.49609  -0.08592  -0.01966   0.43592
  84   76524.2    130.7    -15.37650   0.01019  -0.26600   0.32985
  85   76862.2    130.1      9.29863   0.05694  -0.11401   0.16506
  86   76990.0    129.9     31.01728   0.00383   0.00381  -0.24318
  87   77139.3    129.6    -12.37767  -0.16111  -0.13415  -0.31833
  88   77350.7    129.3    -18.17981  -0.19047  -0.16678   0.24704
  89   77435.0    129.1     -0.40693   0.07592  -0.05675  -0.19745
  90   77646.0    128.8      1.84356  -0.11173  -0.04612  -0.13642
  91   78018.3    128.2     -0.33613  -0.03138   0.00725  -0.02132
  92   78433.7    127.5     -5.59460  -0.02406   0.03212   0.12300
  93   78736.7    127.0    -29.18174   0.12447  -0.09927  -0.07708
  94   78786.9    126.9     12.73008   0.06891   0.16379  -0.00037
  95   78965.7    126.6     22.64472  -0.23945   0.25226   0.03845
  96   79116.4    126.4     18.49173  -0.08623   0.17868  -0.10007
  97   79400.1    125.9    -10.69464   0.21599   0.01236   0.10991
  98   79533.2    125.7      5.46178   0.03929  -0.34231  -0.20876
  99   79625.9    125.6     -0.25415  -0.08478  -0.12875   0.16535
 100   79730.3    125.4    -10.35243  -0.19388   0.48813   0.01907
 101   79769.3    125.4      3.28998   0.45590  -0.18781  -0.02593
 102   79904.8    125.1      9.67934  -0.05365   0.39171  -0.29543
 103   79948.2    125.1    -15.02249  -0.07777   0.27099   0.12792
 104   80120.0    124.8    -18.10622   0.14612  -0.12671  -0.52144
 105   80205.8    124.7     -1.14192   0.05924   0.14088   0.13034
 106   80330.7    124.5      0.33845   0.09190   0.13042  -0.02996
 107   80485.0    124.2      2.41408  -0.03500  -0.00307  -0.15758
 108   80601.5    124.1      5.24480   0.02411   0.11870  -0.06332
 109   80801.8    123.8     -1.75489   0.14633  -0.16649   0.00874
 110   80899.4    123.6      2.22281  -0.25118  -0.09025  -0.33410
 111   81039.5    123.4    -18.52305   0.01041   0.11557  -0.21648
 112   81190.6    123.2     19.03240   0.04390  -0.07492   0.10668
 113   81637.2    122.5     -2.61256  -0.48392  -0.22364   0.12331
 114   81871.0    122.1     21.24705   0.20655  -0.16751   0.02797
 115   82113.3    121.8    -30.20940  -0.34810   0.01342  -0.21332
 116   82182.6    121.7    -79.37497  -0.42163   0.27643   0.16418
 117   82329.8    121.5    -22.65024   0.33615  -0.01997  -0.19456
 118   82499.1    121.2     39.69743  -0.03160   0.49349   0.03015
 119   82560.3    121.1     13.82934   0.14050   0.14064   0.14556
 120   82784.4    120.8     37.84261   0.29195   0.26434  -0.03010
 121   82982.6    120.5     43.53768   0.06678   0.38377  -0.28183
 122   83040.3    120.4      4.19303   0.00688   0.06643  -0.00027
 123   83158.5    120.3     -6.99300   0.15665   0.02003  -0.18323
 124   83221.7    120.2      8.51944   0.17549   0.03889   0.13829
 125   83351.2    120.0    -15.53777  -0.12474  -0.20391   0.24642
 126   83473.5    119.8    -12.46319   0.05851  -0.00068  -0.16258
 127   83643.7    119.6     -9.64872   0.15628   0.12909   0.03459
 128   83813.4    119.3     -4.63012   0.05969  -0.12825  -0.04857
 129   83867.4    119.2    -11.60406   0.15707   0.11248   0.07636
 130   84072.7    118.9     45.48942   0.05822  -0.19724  -0.53432
 131   84124.3    118.9    -19.07351  -0.13413  -0.11129  -0.14378
 132   84286.0    118.6     -5.04505   0.02526  -0.28484   0.15058
 133   84335.8    118.6     -0.72644  -0.81190   0.30869  -0.58865
 134   84539.4    118.3     -0.39995  -0.02737  -0.59298  -0.16339
 135   84750.9    118.0      8.76390   0.15866  -0.01906  -0.16982
 136   84772.8    118.0     -6.15891   0.25580  -0.03192   0.03865
 137   84972.3    117.7    -12.75184  -0.10150  -0.11243   0.23701
 138   85033.5    117.6     -1.60230  -0.00508  -0.11853   0.08241
 139   85091.6    117.5      7.79775  -0.06723   0.26111  -0.35729
 140   85214.5    117.4      2.72091  -0.17841   0.15202  -0.05565
 141   85390.6    117.1    -12.62002  -0.07086   0.08918  -0.34686
 142   85589.5    116.8     -2.73128   0.26837  -0.10050  -0.06451
 143   85659.2    116.7     -2.34838  -0.06319   0.01751  -0.02109
 144   85760.6    116.6    -15.86152  -0.36145   0.64579  -0.00482
 145   85850.3    116.5    147.29096   0.43166  -1.14335   0.07760
 146   85979.8    116.3     -2.27890   0.27863  -0.29568  -0.32588
 147   86002.0    116.3     14.01784   0.07373  -0.19303  -0.19453
 148   86119.2    116.1    -49.26248   0.43237  -0.61568  -0.35176
 149   86226.2    116.0      8.76740   0.00306  -0.03643  -0.20354
 150   86314.7    115.9     34.70138   0.27965  -0.23053   0.36171

-------------------------------------------------------------------
         CD SPECTRUM VIA TRANSITION VELOCITY DIPOLE MOMENTS        
-------------------------------------------------------------------
State  Energy     Wavelength     R         MX        MY        MZ   
       (cm-1)       (nm)     (1e40*cgs)   (au)      (au)      (au)  
-------------------------------------------------------------------
   1   29996.8    333.4    -15.86516  -0.31043   0.58183  -0.00943
   2   30896.5    323.7     -7.15492  -0.16063   0.06090   0.29664
   3   36559.0    273.5      2.46910   0.17041  -0.24411  -0.11136
   4   38094.6    262.5      8.43561   0.03436  -0.08057   0.03858
   5   39793.7    251.3      5.98942   0.05275  -0.17361  -0.06965
   6   45578.3    219.4      4.36173  -0.08619   0.18334  -0.05180
   7   46458.0    215.2      0.40235  -0.02339   0.03509   0.03378
   8   47799.7    209.2     -2.73028  -0.15629  -0.08260   0.12334
   9   49707.6    201.2     -5.12307  -0.22067   0.35508   0.08321
  10   50246.7    199.0     -1.81592  -0.02783   0.02150   0.00838
  11   51240.8    195.2      0.16700  -0.07795  -0.04767   0.00959
  12   51801.2    193.0     -0.25485   0.04936   0.06835   0.13077
  13   52317.0    191.1     -0.38790   0.01824  -0.04208   0.01433
  14   52824.3    189.3     -1.19432   0.01612   0.01313  -0.03270
  15   53188.5    188.0      4.35913  -0.16032   0.02325   0.12623
  16   55942.0    178.8    -33.57541  -0.19101   0.41064   0.08143
  17   56342.8    177.5     13.18715   0.05157  -0.22009  -0.02019
  18   57001.4    175.4     12.52258  -0.18780   0.33897   0.14380
  19   57153.4    175.0     -6.46526   0.25431  -0.13186  -0.01494
  20   57604.2    173.6     24.86799  -0.24754   0.13142  -0.34562
  21   58605.9    170.6     19.97129  -0.20931   0.44627   0.29939
  22   59169.2    169.0      3.36452  -0.00141   0.16287  -0.06411
  23   60034.1    166.6     -8.43700  -0.33108   0.51626  -0.02056
  24   60114.0    166.4     -8.08189   0.03018   0.07541   0.12147
  25   60528.9    165.2     -2.00035   0.04537   0.16869  -0.01240
  26   61143.3    163.6      8.63644  -0.22041  -0.09711  -0.10633
  27   61287.3    163.2      5.08846   0.09229  -0.00154  -0.22164
  28   62070.3    161.1    -10.95965  -0.09485   0.18850   0.05798
  29   62173.2    160.8     -8.63980   0.21485   0.13894  -0.02807
  30   62676.7    159.5      4.30700   0.18215  -0.25408  -0.17855
  31   62979.2    158.8      5.00815  -0.08304   0.25678  -0.44344
  32   63226.4    158.2      0.19646   0.00642  -0.02458   0.01226
  33   63879.8    156.5     -2.97531  -0.00190   0.09354   0.05427
  34   63949.1    156.4      3.35513   0.00541   0.04569  -0.07161
  35   64324.6    155.5      8.56465   0.02535  -0.02885  -0.10307
  36   65391.6    152.9     -0.06711  -0.08494  -0.04245   0.07443
  37   65666.5    152.3     -7.72011  -0.09920  -0.06332   0.20836
  38   65892.0    151.8      4.66629  -0.12051   0.07067  -0.03241
  39   66096.5    151.3     -4.91866  -0.03081   0.23117   0.21403
  40   66142.1    151.2     -0.71879   0.18260  -0.23257   0.14102
  41   66610.9    150.1     -8.69978  -0.27784  -0.08746   0.15068
  42   66740.3    149.8      2.40542   0.02372  -0.10164   0.04839
  43   67314.3    148.6    -20.79025  -0.10000  -0.20317   0.37241
  44   67428.0    148.3     23.39905  -0.35587  -0.06484  -0.04149
  45   67513.1    148.1      1.70775   0.04679  -0.17075   0.09540
  46   67952.5    147.2      3.75784  -0.28526  -0.08617   0.11053
  47   68150.9    146.7     13.95660  -0.18651   0.14605   0.15226
  48   68311.9    146.4    -25.32209   0.00617   0.37848  -0.08302
  49   68446.9    146.1      0.13168  -0.12552  -0.03864   0.38985
  50   68716.9    145.5    -12.32560  -0.06227  -0.05083   0.13281
  51   69106.6    144.7    -10.74506   0.40912  -0.52485  -0.21845
  52   69517.7    143.8     -2.27671  -0.19261  -0.20497   0.16018
  53   69778.4    143.3     15.76851  -0.07116   0.13149  -0.16481
  54   69980.2    142.9     -7.57868  -0.04271  -0.12781   0.00988
  55   70672.0    141.5     -0.30081   0.05031  -0.00131  -0.04929
  56   70834.9    141.2     49.99634   0.21239  -0.15737   0.27922
  57   70914.5    141.0      8.62181   0.24355  -0.39930  -0.21483
  58   70967.0    140.9    -12.00286  -0.00369   0.22271  -0.00109
  59   71474.4    139.9    -21.45666  -0.28357  -0.13664  -0.15471
  60   71583.1    139.7      0.59222  -0.02858  -0.19310   0.21368
  61   71653.0    139.6      8.41419  -0.07178   0.20546   0.13046
  62   71915.1    139.1    -17.11496   0.27185   0.24611   0.05940
  63   72247.3    138.4    -34.54068  -0.29245  -0.37041  -0.11376
  64   72466.7    138.0     -7.57049  -0.31366   0.04955  -0.13327
  65   72685.0    137.6     -3.11471  -0.07331   0.00839   0.07510
  66   73010.1    137.0     -2.11706  -0.07879  -0.11467  -0.00863
  67   73107.1    136.8     10.71105   0.00297   0.02035   0.18128
  68   73378.4    136.3      0.70825   0.12141  -0.07455  -0.09754
  69   73507.9    136.0      1.66602   0.11178   0.03138  -0.01398
  70   73608.5    135.9      3.11184  -0.02124   0.04456  -0.12313
  71   73823.4    135.5     -4.03826   0.33493   0.17684   0.13685
  72   74127.7    134.9     18.36844   0.42525   0.21652  -0.11267
  73   74220.1    134.7     -1.13326  -0.03504   0.10094  -0.02768
  74   74614.4    134.0      3.31497  -0.06317   0.18727   0.17602
  75   74879.7    133.5     11.59557  -0.01755   0.13492   0.23561
  76   74945.0    133.4      1.37404  -0.04092   0.05700   0.00426
  77   74960.3    133.4      7.40399   0.06070   0.24346   0.11938
  78   75262.4    132.9     23.29456   0.14942   0.34602  -0.21511
  79   75537.9    132.4    -36.89066  -0.40253   0.49099  -0.05244
  80   75706.9    132.1    -15.32700   0.30903  -0.18723   0.14693
  81   75807.3    131.9     -4.21828   0.11923   0.05784   0.56066
  82   75999.5    131.6     -9.13750   0.17559  -0.33674   0.01212
  83   76248.5    131.2     15.21414  -0.08592  -0.01966   0.43592
  84   76524.2    130.7    -11.49197   0.01019  -0.26600   0.32985
  85   76862.2    130.1      9.07188   0.05694  -0.11401   0.16506
  86   76990.0    129.9     27.14063   0.00383   0.00381  -0.24318
  87   77139.3    129.6     -6.07725  -0.16111  -0.13415  -0.31833
  88   77350.7    129.3    -12.54839  -0.19047  -0.16678   0.24704
  89   77435.0    129.1     -3.85014   0.07592  -0.05675  -0.19745
  90   77646.0    128.8     -1.75502  -0.11173  -0.04612  -0.13642
  91   78018.3    128.2     -0.14657  -0.03138   0.00725  -0.02132
  92   78433.7    127.5     -1.06592  -0.02406   0.03212   0.12300
  93   78736.7    127.0    -19.31794   0.12447  -0.09927  -0.07708
  94   78786.9    126.9      9.19606   0.06891   0.16379  -0.00037
  95   78965.7    126.6     14.20085  -0.23945   0.25226   0.03845
  96   79116.4    126.4      9.09380  -0.08623   0.17868  -0.10007
  97   79400.1    125.9     -4.46053   0.21599   0.01236   0.10991
  98   79533.2    125.7      1.31993   0.03929  -0.34231  -0.20876
  99   79625.9    125.6     -3.09829  -0.08478  -0.12875   0.16535
 100   79730.3    125.4     -4.45325  -0.19388   0.48813   0.01907
 101   79769.3    125.4     11.30592   0.45590  -0.18781  -0.02593
 102   79904.8    125.1    -17.42618  -0.05365   0.39171  -0.29543
 103   79948.2    125.1     -4.56801  -0.07777   0.27099   0.12792
 104   80120.0    124.8      7.34500   0.14612  -0.12671  -0.52144
 105   80205.8    124.7      0.15097   0.05924   0.14088   0.13034
 106   80330.7    124.5     -0.01422   0.09190   0.13042  -0.02996
 107   80485.0    124.2      0.58991  -0.03500  -0.00307  -0.15758
 108   80601.5    124.1     -0.45314   0.02411   0.11870  -0.06332
 109   80801.8    123.8     -4.37296   0.14633  -0.16649   0.00874
 110   80899.4    123.6     -0.14028  -0.25118  -0.09025  -0.33410
 111   81039.5    123.4    -14.85879   0.01041   0.11557  -0.21648
 112   81190.6    123.2     12.29169   0.04390  -0.07492   0.10668
 113   81637.2    122.5     -5.84285  -0.48392  -0.22364   0.12331
 114   81871.0    122.1     21.37243   0.20655  -0.16751   0.02797
 115   82113.3    121.8    -20.59186  -0.34810   0.01342  -0.21332
 116   82182.6    121.7    -57.72580  -0.42163   0.27643   0.16418
 117   82329.8    121.5    -13.13343   0.33615  -0.01997  -0.19456
 118   82499.1    121.2     23.87913  -0.03160   0.49349   0.03015
 119   82560.3    121.1      8.14331   0.14050   0.14064   0.14556
 120   82784.4    120.8     32.47083   0.29195   0.26434  -0.03010
 121   82982.6    120.5     37.08428   0.06678   0.38377  -0.28183
 122   83040.3    120.4      3.43082   0.00688   0.06643  -0.00027
 123   83158.5    120.3     -7.64241   0.15665   0.02003  -0.18323
 124   83221.7    120.2      7.67166   0.17549   0.03889   0.13829
 125   83351.2    120.0    -14.72768  -0.12474  -0.20391   0.24642
 126   83473.5    119.8     -7.91404   0.05851  -0.00068  -0.16258
 127   83643.7    119.6     -6.86258   0.15628   0.12909   0.03459
 128   83813.4    119.3     -2.70177   0.05969  -0.12825  -0.04857
 129   83867.4    119.2    -10.24281   0.15707   0.11248   0.07636
 130   84072.7    118.9     16.95058   0.05822  -0.19724  -0.53432
 131   84124.3    118.9    -21.73831  -0.13413  -0.11129  -0.14378
 132   84286.0    118.6     -0.38132   0.02526  -0.28484   0.15058
 133   84335.8    118.6     16.54165  -0.81190   0.30869  -0.58865
 134   84539.4    118.3      5.39750  -0.02737  -0.59298  -0.16339
 135   84750.9    118.0      7.83387   0.15866  -0.01906  -0.16982
 136   84772.8    118.0     -9.91884   0.25580  -0.03192   0.03865
 137   84972.3    117.7    -10.52731  -0.10150  -0.11243   0.23701
 138   85033.5    117.6     -3.35219  -0.00508  -0.11853   0.08241
 139   85091.6    117.5     11.30008  -0.06723   0.26111  -0.35729
 140   85214.5    117.4      4.56307  -0.17841   0.15202  -0.05565
 141   85390.6    117.1    -13.94557  -0.07086   0.08918  -0.34686
 142   85589.5    116.8      3.36980   0.26837  -0.10050  -0.06451
 143   85659.2    116.7     -1.91875  -0.06319   0.01751  -0.02109
 144   85760.6    116.6    -15.41559  -0.36145   0.64579  -0.00482
 145   85850.3    116.5     90.09161   0.43166  -1.14335   0.07760
 146   85979.8    116.3     15.48145   0.27863  -0.29568  -0.32588
 147   86002.0    116.3     11.64604   0.07373  -0.19303  -0.19453
 148   86119.2    116.1    -45.74310   0.43237  -0.61568  -0.35176
 149   86226.2    116.0      8.25238   0.00306  -0.03643  -0.20354
 150   86314.7    115.9     25.30797   0.27965  -0.23053   0.36171

Total run time:     1016.825 sec

           *** ORCA-CIS/TD-DFT FINISHED WITHOUT ERROR ***

Maximum memory used throughout the entire CIS-calculation: 809.1 MB

-----------------------
CIS/TD-DFT TOTAL ENERGY
-----------------------

    E(SCF)  =  -1227.809879009 Eh
    DE(CIS) =      0.136675667 Eh (Root  1)
    ----------------------------- ---------
    E(tot)  =  -1227.673203342 Eh



-------------------------------------------------------------------------------
                          DFT DISPERSION CORRECTION                            
                                                                               
                              DFTD3 V3.1  Rev 1                                
                          USING Becke-Johnson damping                          
-------------------------------------------------------------------------------
The CAM-B3LYP functional is recognized
Active option DFTDOPT                   ...         4   

molecular C6(AA) [au] = 13589.102357 


            DFT-D V3
 parameters
 s6 scaling factor         :     1.0000 
 a1 scaling factor         :     0.3708 
 s8 scaling factor         :     2.0674 
 a2 scaling factor         :     5.4743 
 ad hoc parameters k1-k3   :    16.0000     1.3333    -4.0000 

 Edisp/kcal,au: -19.713904739590  -0.031416103583 
 E6   /kcal   : -10.117620925 
 E8   /kcal   :  -9.596283815 
 % E8         :  48.677742647 

-------------------------   ----------------
Dispersion correction           -0.031416104
-------------------------   ----------------


-------------------------   --------------------
FINAL SINGLE POINT ENERGY     -1227.704619445296
-------------------------   --------------------


                            ***************************************
                            *     ORCA property calculations      *
                            ***************************************

                                    ---------------------
                                    Active property flags
                                    ---------------------
   (+) Dipole Moment


------------------------------------------------------------------------------
                       ORCA ELECTRIC PROPERTIES CALCULATION
------------------------------------------------------------------------------

Dipole Moment Calculation                       ... on
Quadrupole Moment Calculation                   ... off
Polarizability Calculation                      ... off
GBWName                                         ... b.gbw
Electron density                                ... b.scfp
The origin for moment calculation is the CENTER OF MASS  = ( 4.460458, 15.017343 11.466023)

-------------
DIPOLE MOMENT
-------------
                                X             Y             Z
Electronic contribution:     -3.68226      -3.53196       0.05817
Nuclear contribution   :      3.37891       3.31608       1.77557
                        -----------------------------------------
Total Dipole Moment    :     -0.30335      -0.21588       1.83374
                        -----------------------------------------
Magnitude (a.u.)       :      1.87116
Magnitude (Debye)      :      4.75611



--------------------
Rotational spectrum 
--------------------
 
Rotational constants in cm-1:     0.035604     0.003976     0.003622 
Rotational constants in MHz :  1067.393831   119.186486   108.598135 

 Dipole components along the rotational axes: 
x,y,z [a.u.] :     0.177034     1.844455     0.260541 
x,y,z [Debye]:     0.449985     4.688231     0.662243 

 

Timings for individual modules:

Sum of individual times         ...     1194.304 sec (=  19.905 min)
GTO integral calculation        ...        0.816 sec (=   0.014 min)   0.1 %
SCF iterations                  ...      176.435 sec (=   2.941 min)  14.8 %
CIS module                      ...     1017.053 sec (=  16.951 min)  85.2 %
                             ****ORCA TERMINATED NORMALLY****
TOTAL RUN TIME: 0 days 0 hours 19 minutes 54 seconds 774 msec
