
                                 *****************
                                 * O   R   C   A *
                                 *****************

                                            #,                                       
                                            ###                                      
                                            ####                                     
                                            #####                                    
                                            ######                                   
                                           ########,                                 
                                     ,,################,,,,,                         
                               ,,#################################,,                 
                          ,,##########################################,,             
                       ,#########################################, ''#####,          
                    ,#############################################,,   '####,        
                  ,##################################################,,,,####,       
                ,###########''''           ''''###############################       
              ,#####''   ,,,,##########,,,,          '''####'''          '####       
            ,##' ,,,,###########################,,,                        '##       
           ' ,,###''''                  '''############,,,                           
         ,,##''                                '''############,,,,        ,,,,,,###''
      ,#''                                            '''#######################'''  
     '                                                          ''''####''''         
             ,#######,   #######,   ,#######,      ##                                
            ,#'     '#,  ##    ##  ,#'     '#,    #''#        ######   ,####,        
            ##       ##  ##   ,#'  ##            #'  '#       #        #'  '#        
            ##       ##  #######   ##           ,######,      #####,   #    #        
            '#,     ,#'  ##    ##  '#,     ,#' ,#      #,         ##   #,  ,#        
             '#######'   ##     ##  '#######'  #'      '#     #####' # '####'        



                  #######################################################
                  #                        -***-                        #
                  #          Department of theory and spectroscopy      #
                  #    Directorship and core code : Frank Neese         #
                  #        Max Planck Institute fuer Kohlenforschung    #
                  #                Kaiser Wilhelm Platz 1               #
                  #                 D-45470 Muelheim/Ruhr               #
                  #                      Germany                        #
                  #                                                     #
                  #                  All rights reserved                #
                  #                        -***-                        #
                  #######################################################


                         Program Version 5.0.4 -  RELEASE  -


 With contributions from (in alphabetic order):
   Daniel Aravena         : Magnetic Suceptibility
   Michael Atanasov       : Ab Initio Ligand Field Theory (pilot matlab implementation)
   Alexander A. Auer      : GIAO ZORA, VPT2 properties, NMR spectrum
   Ute Becker             : Parallelization
   Giovanni Bistoni       : ED, misc. LED, open-shell LED, HFLD
   Martin Brehm           : Molecular dynamics
   Dmytro Bykov           : SCF Hessian
   Vijay G. Chilkuri      : MRCI spin determinant printing, contributions to CSF-ICE
   Dipayan Datta          : RHF DLPNO-CCSD density
   Achintya Kumar Dutta   : EOM-CC, STEOM-CC
   Dmitry Ganyushin       : Spin-Orbit,Spin-Spin,Magnetic field MRCI
   Miquel Garcia          : C-PCM and meta-GGA Hessian, CC/C-PCM, Gaussian charge scheme
   Yang Guo               : DLPNO-NEVPT2, F12-NEVPT2, CIM, IAO-localization
   Andreas Hansen         : Spin unrestricted coupled pair/coupled cluster methods
   Benjamin Helmich-Paris : MC-RPA, TRAH-SCF, COSX integrals
   Lee Huntington         : MR-EOM, pCC
   Robert Izsak           : Overlap fitted RIJCOSX, COSX-SCS-MP3, EOM
   Marcus Kettner         : VPT2
   Christian Kollmar      : KDIIS, OOCD, Brueckner-CCSD(T), CCSD density, CASPT2, CASPT2-K
   Simone Kossmann        : Meta GGA functionals, TD-DFT gradient, OOMP2, MP2 Hessian
   Martin Krupicka        : Initial AUTO-CI
   Lucas Lang             : DCDCAS
   Marvin Lechner         : AUTO-CI (C++ implementation), FIC-MRCC
   Dagmar Lenk            : GEPOL surface, SMD
   Dimitrios Liakos       : Extrapolation schemes; Compound Job, initial MDCI parallelization
   Dimitrios Manganas     : Further ROCIS development; embedding schemes
   Dimitrios Pantazis     : SARC Basis sets
   Anastasios Papadopoulos: AUTO-CI, single reference methods and gradients
   Taras Petrenko         : DFT Hessian,TD-DFT gradient, ASA, ECA, R-Raman, ABS, FL, XAS/XES, NRVS
   Peter Pinski           : DLPNO-MP2, DLPNO-MP2 Gradient
   Christoph Reimann      : Effective Core Potentials
   Marius Retegan         : Local ZFS, SOC
   Christoph Riplinger    : Optimizer, TS searches, QM/MM, DLPNO-CCSD(T), (RO)-DLPNO pert. Triples
   Tobias Risthaus        : Range-separated hybrids, TD-DFT gradient, RPA, STAB
   Michael Roemelt        : Original ROCIS implementation
   Masaaki Saitow         : Open-shell DLPNO-CCSD energy and density
   Barbara Sandhoefer     : DKH picture change effects
   Avijit Sen             : IP-ROCIS
   Kantharuban Sivalingam : CASSCF convergence, NEVPT2, FIC-MRCI
   Bernardo de Souza      : ESD, SOC TD-DFT
   Georgi Stoychev        : AutoAux, RI-MP2 NMR, DLPNO-MP2 response
   Willem Van den Heuvel  : Paramagnetic NMR
   Boris Wezisla          : Elementary symmetry handling
   Frank Wennmohs         : Technical directorship


 We gratefully acknowledge several colleagues who have allowed us to
 interface, adapt or use parts of their codes:
   Stefan Grimme, W. Hujo, H. Kruse, P. Pracht,  : VdW corrections, initial TS optimization,
                  C. Bannwarth, S. Ehlert          DFT functionals, gCP, sTDA/sTD-DF
   Ed Valeev, F. Pavosevic, A. Kumar             : LibInt (2-el integral package), F12 methods
   Garnet Chan, S. Sharma, J. Yang, R. Olivares  : DMRG
   Ulf Ekstrom                                   : XCFun DFT Library
   Mihaly Kallay                                 : mrcc  (arbitrary order and MRCC methods)
   Jiri Pittner, Ondrej Demel                    : Mk-CCSD
   Frank Weinhold                                : gennbo (NPA and NBO analysis)
   Christopher J. Cramer and Donald G. Truhlar   : smd solvation model
   Lars Goerigk                                  : TD-DFT with DH, B97 family of functionals
   V. Asgeirsson, H. Jonsson                     : NEB implementation
   FAccTs GmbH                                   : IRC, NEB, NEB-TS, DLPNO-Multilevel, CI-OPT
                                                   MM, QMMM, 2- and 3-layer-ONIOM, Crystal-QMMM,
                                                   LR-CPCM, SF, NACMEs, symmetry and pop. for TD-DFT,
                                                   nearIR, NL-DFT gradient (VV10), updates on ESD,
                                                   ML-optimized integration grids
   S Lehtola, MJT Oliveira, MAL Marques          : LibXC Library
   Liviu Ungur et al                             : ANISO software


 Your calculation uses the libint2 library for the computation of 2-el integrals
 For citations please refer to: http://libint.valeyev.net

 Your ORCA version has been built with support for libXC version: 5.1.0
 For citations please refer to: https://tddft.org/programs/libxc/

 This ORCA versions uses:
   CBLAS   interface :  Fast vector & matrix operations
   LAPACKE interface :  Fast linear algebra routines
   SCALAPACK package :  Parallel linear algebra routines
   Shared memory     :  Shared parallel matrices
   BLAS/LAPACK       :  OpenBLAS 0.3.15  USE64BITINT DYNAMIC_ARCH NO_AFFINITY SkylakeX SINGLE_THREADED
        Core in use  :  SkylakeX
   Copyright (c) 2011-2014, The OpenBLAS Project


Your calculation utilizes the atom-pairwise dispersion correction
with the Becke-Johnson damping scheme (D3BJ)
Cite in your paper:
S.Grimme, S.Ehrlich, L.Goerigk, J Comput Chem, (2011), 32, 1456–1465 
S.Grimme, J.Antony, S.Ehrlich and H.Krieg, J.Chem.Phys., 132, (2010), 154104 
   

================================================================================

----- Orbital basis set information -----
Your calculation utilizes the basis: def2-TZVP(-f)
   F. Weigend and R. Ahlrichs, Phys. Chem. Chem. Phys. 7, 3297 (2005).

----- AuxJ basis set information -----
Your calculation utilizes the auxiliary basis: def2/J
   F. Weigend, Phys. Chem. Chem. Phys. 8, 1057 (2006).

================================================================================
                                        WARNINGS
                       Please study these warnings very carefully!
================================================================================


INFO   : the flag for use of the SHARK integral package has been found!

================================================================================
                                       INPUT FILE
================================================================================
NAME = a.inp
|  1> ! B3LYP D3 def2-TZVP(-f) def2/J RIJCOSX opt freq tightSCF noautostart miniprint nopop
|  2> %maxcore  1500
|  3> %pal nprocs   8 end
|  4> ! CPCM(DMF)
|  5> * xyz   0   1
|  6> S      4.83650000    9.04700000    8.33740000
|  7> F      1.09040000    6.83480000    7.09430000
|  8> O      2.43790000    8.60150000    3.60820000
|  9> O     -2.61100000    5.24410000    4.73950000
| 10> C      0.43500000    6.73230000    5.92990000
| 11> C     -0.71950000    6.01410000    5.96920000
| 12> H     -1.05740000    5.55360000    6.89640000
| 13> C     -1.43900000    5.88590000    4.83080000
| 14> C     -0.98050000    6.45300000    3.67110000
| 15> H     -1.55060000    6.34880000    2.74910000
| 16> C      0.17520000    7.14090000    3.67440000
| 17> H      0.52430000    7.57460000    2.73850000
| 18> C      0.93990000    7.32110000    4.80970000
| 19> C      2.15200000    8.14450000    4.68600000
| 20> C      2.99780000    8.44190000    5.82670000
| 21> H      2.69340000    8.10870000    6.81770000
| 22> C      4.11670000    9.10210000    5.68830000
| 23> H      4.37170000    9.40730000    4.67450000
| 24> C      5.04190000    9.46850000    6.70490000
| 25> C      6.17800000   10.17580000    6.55100000
| 26> H      6.51640000   10.54490000    5.58390000
| 27> C      6.88430000   10.39460000    7.73100000
| 28> C      6.25950000    9.83240000    8.77220000
| 29> H      6.63300000    9.87900000    9.79400000
| 30> C     -3.14480000    4.63690000    5.89590000
| 31> H     -4.11320000    4.19760000    5.66090000
| 32> H     -3.26620000    5.38580000    6.67710000
| 33> H     -2.46800000    3.85730000    6.24240000
| 34> C      8.13880000   11.17090000    7.81510000
| 35> H      8.75310000   10.96380000    6.94000000
| 36> H      8.68180000   10.88680000    8.71520000
| 37> H      7.90560000   12.23400000    7.85180000
| 38>  *
| 39> 
| 40>                          ****END OF INPUT****
================================================================================

                       *****************************
                       * Geometry Optimization Run *
                       *****************************

Geometry optimization settings:
Update method            Update   .... BFGS
Choice of coordinates    CoordSys .... Z-matrix Internals
Initial Hessian          InHess   .... Almoef's Model

Convergence Tolerances:
Energy Change            TolE     ....  5.0000e-06 Eh
Max. Gradient            TolMAXG  ....  3.0000e-04 Eh/bohr
RMS Gradient             TolRMSG  ....  1.0000e-04 Eh/bohr
Max. Displacement        TolMAXD  ....  4.0000e-03 bohr
RMS Displacement         TolRMSD  ....  2.0000e-03 bohr
Strict Convergence                ....  False
------------------------------------------------------------------------------
                        ORCA OPTIMIZATION COORDINATE SETUP
------------------------------------------------------------------------------

The optimization will be done in new redundant internal coordinates
Making redundant internal coordinates   ...  (new redundants) done
Evaluating the initial hessian          ...  (Almloef) done
Evaluating the coordinates              ...  done
Calculating the B-matrix                .... done
Calculating the G-matrix                .... done
Diagonalizing the G-matrix              .... done
Small eigenvalue found = 1.721e-03
Small eigenvalue found = 1.113e-02
Small eigenvalue found = 1.344e-02
Small eigenvalue found = 2.491e-02
Small eigenvalue found = 2.795e-02
The first mode is                       ....   63
The number of degrees of freedom        ....   90

    -----------------------------------------------------------------
                    Redundant Internal Coordinates


    -----------------------------------------------------------------
         Definition                    Initial Value    Approx d2E/dq
    -----------------------------------------------------------------
      1. B(C   4,F   1)                  1.3401         0.624554   
      2. B(C   5,C   4)                  1.3602         0.697003   
      3. B(H   6,C   5)                  1.0890         0.361416   
      4. B(C   7,C   5)                  1.3528         0.716288   
      5. B(C   7,O   3)                  1.3393         0.674067   
      6. B(C   8,C   7)                  1.3699         0.672585   
      7. B(H   9,C   8)                  1.0890         0.361404   
      8. B(C  10,C   8)                  1.3449         0.737278   
      9. B(H  11,C  10)                  1.0890         0.361453   
     10. B(C  12,C  10)                  1.3806         0.646673   
     11. B(C  12,C   4)                  1.3625         0.691167   
     12. B(C  13,C  12)                  1.4705         0.464781   
     13. B(C  13,O   2)                  1.2051         1.103795   
     14. B(C  14,C  13)                  1.4509         0.499604   
     15. B(H  15,C  14)                  1.0889         0.361522   
     16. B(C  16,C  14)                  1.3065         0.849081   
     17. B(H  17,C  16)                  1.0890         0.361400   
     18. B(C  18,C  16)                  1.4226         0.554329   
     19. B(C  18,S   0)                  1.6985         0.542390   
     20. B(C  19,C  18)                  1.3471         0.731444   
     21. B(H  20,C  19)                  1.0891         0.361358   
     22. B(C  21,C  19)                  1.3925         0.619022   
     23. B(C  22,C  21)                  1.3381         0.756004   
     24. B(C  22,S   0)                  1.6825         0.575213   
     25. B(H  23,C  22)                  1.0889         0.361530   
     26. B(C  24,O   3)                  1.4110         0.518067   
     27. B(H  25,C  24)                  1.0890         0.361372   
     28. B(H  26,C  24)                  1.0890         0.361461   
     29. B(H  27,C  24)                  1.0890         0.361440   
     30. B(C  28,C  21)                  1.4777         0.452772   
     31. B(H  29,C  28)                  1.0891         0.361344   
     32. B(H  30,C  28)                  1.0889         0.361535   
     33. B(H  31,C  28)                  1.0890         0.361432   
     34. A(C  18,S   0,C  22)           91.7341         0.465980   
     35. A(C   7,O   3,C  24)          118.7765         0.421115   
     36. A(F   1,C   4,C  12)          120.0050         0.438367   
     37. A(C   5,C   4,C  12)          124.5024         0.452154   
     38. A(F   1,C   4,C   5)          115.4915         0.439033   
     39. A(C   4,C   5,H   6)          120.7454         0.360219   
     40. A(C   4,C   5,C   7)          118.4988         0.455100   
     41. A(H   6,C   5,C   7)          120.7558         0.361900   
     42. A(O   3,C   7,C   5)          124.6237         0.449349   
     43. A(O   3,C   7,C   8)          115.6918         0.444250   
     44. A(C   5,C   7,C   8)          119.6786         0.452157   
     45. A(H   9,C   8,C  10)          120.0568         0.363688   
     46. A(C   7,C   8,H   9)          120.1251         0.358037   
     47. A(C   7,C   8,C  10)          119.8181         0.454539   
     48. A(H  11,C  10,C  12)          118.5008         0.355663   
     49. A(C   8,C  10,C  12)          123.0055         0.451303   
     50. A(C   8,C  10,H  11)          118.4936         0.363696   
     51. A(C  10,C  12,C  13)          117.4160         0.415376   
     52. A(C   4,C  12,C  13)          128.0659         0.420329   
     53. A(C   4,C  12,C  10)          114.4822         0.446046   
     54. A(C  12,C  13,C  14)          121.9480         0.396861   
     55. A(O   2,C  13,C  14)          119.1525         0.460354   
     56. A(O   2,C  13,C  12)          118.8896         0.454331   
     57. A(H  15,C  14,C  16)          119.3687         0.372628   
     58. A(C  13,C  14,C  16)          121.3019         0.441848   
     59. A(C  13,C  14,H  15)          119.3294         0.340547   
     60. A(H  17,C  16,C  18)          116.1543         0.346515   
     61. A(C  14,C  16,C  18)          127.6930         0.450247   
     62. A(C  14,C  16,H  17)          116.1526         0.372607   
     63. A(C  16,C  18,C  19)          127.0198         0.438257   
     64. A(S   0,C  18,C  19)          110.0043         0.460939   
     65. A(S   0,C  18,C  16)          122.9758         0.438315   
     66. A(C  18,C  19,H  20)          122.7832         0.363186   
     67. A(H  20,C  19,C  21)          122.7950         0.353023   
     68. A(C  18,C  19,C  21)          114.4218         0.447093   
     69. A(C  19,C  21,C  28)          124.1514         0.410254   
     70. A(C  22,C  21,C  28)          124.9492         0.425124   
     71. A(C  19,C  21,C  22)          110.8862         0.449780   
     72. A(C  21,C  22,H  23)          123.5052         0.365273   
     73. A(S   0,C  22,H  23)          123.5433         0.366933   
     74. A(S   0,C  22,C  21)          112.9514         0.468746   
     75. A(H  26,C  24,H  27)          109.4726         0.291182   
     76. A(H  25,C  24,H  27)          109.4223         0.291171   
     77. A(O   3,C  24,H  27)          109.4952         0.340522   
     78. A(H  25,C  24,H  26)          109.4558         0.291173   
     79. A(O   3,C  24,H  26)          109.5216         0.340525   
     80. A(O   3,C  24,H  25)          109.4598         0.340511   
     81. A(H  30,C  28,H  31)          109.4889         0.291190   
     82. A(H  29,C  28,H  31)          109.4820         0.291166   
     83. A(C  21,C  28,H  31)          109.4498         0.334991   
     84. A(H  29,C  28,H  30)          109.4700         0.291179   
     85. A(C  21,C  28,H  30)          109.4710         0.335007   
     86. A(C  21,C  28,H  29)          109.4656         0.334977   
     87. D(C   7,C   5,C   4,F   1)    179.1853         0.034191   
     88. D(C   7,C   5,C   4,C  12)     -1.1963         0.034191   
     89. D(H   6,C   5,C   4,C  12)    178.8648         0.034191   
     90. D(H   6,C   5,C   4,F   1)     -0.7536         0.034191   
     91. D(C   8,C   7,C   5,H   6)   -178.7679         0.036279   
     92. D(O   3,C   7,C   5,H   6)      2.1515         0.036279   
     93. D(O   3,C   7,C   5,C   4)   -177.7874         0.036279   
     94. D(C   8,C   7,C   5,C   4)      1.2932         0.036279   
     95. D(C   5,C   7,O   3,C  24)     -0.8152         0.033789   
     96. D(C   8,C   7,O   3,C  24)   -179.9288         0.033789   
     97. D(H   9,C   8,C   7,O   3)     -1.2375         0.031656   
     98. D(C  10,C   8,C   7,C   5)     -0.4961         0.031656   
     99. D(H   9,C   8,C   7,C   5)    179.6021         0.031656   
    100. D(C  10,C   8,C   7,O   3)    178.6644         0.031656   
    101. D(H  11,C  10,C   8,C   7)    179.4224         0.038640   
    102. D(C  12,C  10,C   8,H   9)    179.3970         0.038640   
    103. D(C  12,C  10,C   8,C   7)     -0.5049         0.038640   
    104. D(H  11,C  10,C   8,H   9)     -0.6757         0.038640   
    105. D(C  13,C  12,C  10,C   8)   -177.3757         0.029096   
    106. D(C   4,C  12,C  10,H  11)   -179.3021         0.029096   
    107. D(C  13,C  12,C  10,H  11)      2.6970         0.029096   
    108. D(C   4,C  12,C  10,C   8)      0.6252         0.029096   
    109. D(C  13,C  12,C   4,C   5)    177.9845         0.033574   
    110. D(C  13,C  12,C   4,F   1)     -2.4132         0.033574   
    111. D(C  10,C  12,C   4,C   5)      0.2387         0.033574   
    112. D(C  10,C  12,C   4,F   1)    179.8409         0.033574   
    113. D(C  14,C  13,C  12,C  10)    177.4952         0.014712   
    114. D(O   2,C  13,C  12,C  10)     -1.3486         0.014712   
    115. D(O   2,C  13,C  12,C   4)   -179.0376         0.014712   
    116. D(C  14,C  13,C  12,C   4)     -0.1937         0.014712   
    117. D(H  15,C  14,C  13,O   2)    174.3532         0.017001   
    118. D(C  16,C  14,C  13,C  12)    175.5532         0.017001   
    119. D(C  16,C  14,C  13,O   2)     -5.6059         0.017001   
    120. D(H  15,C  14,C  13,C  12)     -4.4877         0.017001   
    121. D(C  18,C  16,C  14,H  15)     -0.1187         0.052798   
    122. D(C  18,C  16,C  14,C  13)    179.8404         0.052798   
    123. D(H  17,C  16,C  14,H  15)    179.8230         0.052798   
    124. D(H  17,C  16,C  14,C  13)     -0.2179         0.052798   
    125. D(C  19,C  18,C  16,H  17)      1.6550         0.021032   
    126. D(C  19,C  18,C  16,C  14)   -178.4033         0.021032   
    127. D(S   0,C  18,C  16,H  17)   -178.3761         0.021032   
    128. D(S   0,C  18,C  16,C  14)      1.5656         0.021032   
    129. D(C  19,C  18,S   0,C  22)      0.4136         0.005897   
    130. D(C  16,C  18,S   0,C  22)   -179.5600         0.005897   
    131. D(C  21,C  19,C  18,C  16)    179.4931         0.037974   
    132. D(C  21,C  19,C  18,S   0)     -0.4791         0.037974   
    133. D(H  20,C  19,C  18,C  16)     -0.5663         0.037974   
    134. D(H  20,C  19,C  18,S   0)    179.4614         0.037974   
    135. D(C  28,C  21,C  19,H  20)      1.6214         0.026510   
    136. D(C  28,C  21,C  19,C  18)   -178.4381         0.026510   
    137. D(C  22,C  21,C  19,H  20)   -179.6464         0.026510   
    138. D(C  22,C  21,C  19,C  18)      0.2941         0.026510   
    139. D(H  23,C  22,C  21,C  28)     -1.2144         0.040823   
    140. D(H  23,C  22,C  21,C  19)   -179.9344         0.040823   
    141. D(S   0,C  22,C  21,C  28)    178.7550         0.040823   
    142. D(S   0,C  22,C  21,C  19)      0.0350         0.040823   
    143. D(H  23,C  22,S   0,C  18)    179.7103         0.006477   
    144. D(C  21,C  22,S   0,C  18)     -0.2591         0.006477   
    145. D(H  27,C  24,O   3,C   7)    -62.3736         0.021272   
    146. D(H  26,C  24,O   3,C   7)     57.6737         0.021272   
    147. D(H  25,C  24,O   3,C   7)    177.6787         0.021272   
    148. D(H  29,C  28,C  21,C  22)    143.0778         0.015117   
    149. D(H  29,C  28,C  21,C  19)    -38.3674         0.015117   
    150. D(H  31,C  28,C  21,C  22)    -96.9255         0.015117   
    151. D(H  31,C  28,C  21,C  19)     81.6293         0.015117   
    152. D(H  30,C  28,C  21,C  22)     23.0829         0.015117   
    153. D(H  30,C  28,C  21,C  19)   -158.3623         0.015117   
    -----------------------------------------------------------------

Number of atoms                         .... 32
Number of degrees of freedom            .... 153

         *************************************************************
         *                GEOMETRY OPTIMIZATION CYCLE   1            *
         *************************************************************
---------------------------------
CARTESIAN COORDINATES (ANGSTROEM)
---------------------------------
  S      4.836500    9.047000    8.337400
  F      1.090400    6.834800    7.094300
  O      2.437900    8.601500    3.608200
  O     -2.611000    5.244100    4.739500
  C      0.435000    6.732300    5.929900
  C     -0.719500    6.014100    5.969200
  H     -1.057400    5.553600    6.896400
  C     -1.439000    5.885900    4.830800
  C     -0.980500    6.453000    3.671100
  H     -1.550600    6.348800    2.749100
  C      0.175200    7.140900    3.674400
  H      0.524300    7.574600    2.738500
  C      0.939900    7.321100    4.809700
  C      2.152000    8.144500    4.686000
  C      2.997800    8.441900    5.826700
  H      2.693400    8.108700    6.817700
  C      4.116700    9.102100    5.688300
  H      4.371700    9.407300    4.674500
  C      5.041900    9.468500    6.704900
  C      6.178000   10.175800    6.551000
  H      6.516400   10.544900    5.583900
  C      6.884300   10.394600    7.731000
  C      6.259500    9.832400    8.772200
  H      6.633000    9.879000    9.794000
  C     -3.144800    4.636900    5.895900
  H     -4.113200    4.197600    5.660900
  H     -3.266200    5.385800    6.677100
  H     -2.468000    3.857300    6.242400
  C      8.138800   11.170900    7.815100
  H      8.753100   10.963800    6.940000
  H      8.681800   10.886800    8.715200
  H      7.905600   12.234000    7.851800

----------------------------
CARTESIAN COORDINATES (A.U.)
----------------------------
  NO LB      ZA    FRAG     MASS         X           Y           Z
   0 S    16.0000    0    32.060    9.139660   17.096352   15.755403
   1 F     9.0000    0    18.998    2.060557   12.915900   13.406284
   2 O     8.0000    0    15.999    4.606963   16.254479    6.818510
   3 O     8.0000    0    15.999   -4.934075    9.909913    8.956357
   4 C     6.0000    0    12.011    0.822031   12.722203   11.205887
   5 C     6.0000    0    12.011   -1.359658   11.365002   11.280153
   6 H     1.0000    0     1.008   -1.998196   10.494783   13.032307
   7 C     6.0000    0    12.011   -2.719316   11.122739    9.128889
   8 C     6.0000    0    12.011   -1.852876   12.194403    6.937374
   9 H     1.0000    0     1.008   -2.930209   11.997493    5.195046
  10 C     6.0000    0    12.011    0.331080   13.494345    6.943610
  11 H     1.0000    0     1.008    0.990783   14.313920    5.175015
  12 C     6.0000    0    12.011    1.776154   13.834874    9.089016
  13 C     6.0000    0    12.011    4.066691   15.390874    8.855257
  14 C     6.0000    0    12.011    5.665021   15.952879   11.010867
  15 H     1.0000    0     1.008    5.089788   15.323222   12.883586
  16 C     6.0000    0    12.011    7.779436   17.200476   10.749329
  17 H     1.0000    0     1.008    8.261316   17.777221    8.833525
  18 C     6.0000    0    12.011    9.527810   17.892872   12.670425
  19 C     6.0000    0    12.011   11.674728   19.229475   12.379596
  20 H     1.0000    0     1.008   12.314211   19.926973   10.552042
  21 C     6.0000    0    12.011   13.009442   19.642947   14.609473
  22 C     6.0000    0    12.011   11.828741   18.580543   16.577056
  23 H     1.0000    0     1.008   12.534553   18.668604   18.507978
  24 C     6.0000    0    12.011   -5.942811    8.762471   11.141636
  25 H     1.0000    0     1.008   -7.772822    7.932314   10.697551
  26 H     1.0000    0     1.008   -6.172223   10.177687   12.617890
  27 H     1.0000    0     1.008   -4.663844    7.289241   11.796426
  28 C     6.0000    0    12.011   15.380103   21.109942   14.768399
  29 H     1.0000    0     1.008   16.540962   20.718579   13.114699
  30 H     1.0000    0     1.008   16.406224   20.573070   16.469341
  31 H     1.0000    0     1.008   14.939419   23.118910   14.837752



           ************************************************************
           *        Program running with 8 parallel MPI-processes     *
           *              working on a common directory               *
           ************************************************************
------------------------------------------------------------------------------
                   ___                                                        
                  /   \      - P O W E R E D   B Y -                         
                 /     \                                                     
                 |  |  |   _    _      __       _____    __    __             
                 |  |  |  | |  | |    /  \     |  _  \  |  |  /  |          
                  \  \/   | |  | |   /    \    | | | |  |  | /  /          
                 / \  \   | |__| |  /  /\  \   | |_| |  |  |/  /          
                |  |  |   |  __  | /  /__\  \  |    /   |      \           
                |  |  |   | |  | | |   __   |  |    \   |  |\   \          
                \     /   | |  | | |  |  |  |  | |\  \  |  | \   \       
                 \___/    |_|  |_| |__|  |__|  |_| \__\ |__|  \__/        
                                                                              
                      - O R C A' S   B I G   F R I E N D -                    
                                      &                                       
                       - I N T E G R A L  F E E D E R -                       
                                                                              
 v1 FN, 2020, v2 2021                                                         
------------------------------------------------------------------------------


Reading SHARK input file a.SHARKINP.tmp ... ok
----------------------
SHARK INTEGRAL PACKAGE
----------------------

Number of atoms                             ...     32
Number of basis functions                   ...    540
Number of shells                            ...    244
Maximum angular momentum                    ...      2
Integral batch strategy                     ... SHARK/LIBINT Hybrid
RI-J (if used) integral strategy            ... SPLIT-RIJ (Revised 2003 algorithm where possible)
Printlevel                                  ...      1
Contraction scheme used                     ... SEGMENTED contraction
Coulomb Range Separation                    ... NOT USED
Exchange Range Separation                   ... NOT USED
Finite Nucleus Model                        ... NOT USED
Auxiliary Coulomb fitting basis             ... AVAILABLE
   # of basis functions in Aux-J            ...   1076
   # of shells in Aux-J                     ...    352
   Maximum angular momentum in Aux-J        ...      4
Auxiliary J/K fitting basis                 ... NOT available
Auxiliary Correlation fitting basis         ... NOT available
Auxiliary 'external' fitting basis          ... NOT available
Integral threshold                          ...     2.500000e-11
Primitive cut-off                           ...     2.500000e-12
Primitive pair pre-selection threshold      ...     2.500000e-12

Calculating pre-screening integrals         ... done (  0.1 sec) Dimension = 244
Organizing shell pair data                  ... done (  0.2 sec)
Shell pair information
Total number of shell pairs                 ...     29890
Shell pairs after pre-screening             ...     18958
Total number of primitive shell pairs       ...    100152
Primitive shell pairs kept                  ...     42331
          la=0 lb=0:   5363 shell pairs
          la=1 lb=0:   6300 shell pairs
          la=1 lb=1:   1872 shell pairs
          la=2 lb=0:   3120 shell pairs
          la=2 lb=1:   1836 shell pairs
          la=2 lb=2:    467 shell pairs

Calculating one electron integrals          ... done (  0.0 sec)
Calculating RI/J V-Matrix + Cholesky decomp.... done (  0.1 sec)
Calculating Nuclear repulsion               ... done (  0.0 sec) ENN=   1420.331177895168 Eh

SHARK setup successfully completed in   0.6 seconds

Maximum memory used throughout the entire GTOINT-calculation: 30.7 MB


           ************************************************************
           *        Program running with 8 parallel MPI-processes     *
           *              working on a common directory               *
           ************************************************************

Diagonalization of the overlap matrix:
Smallest eigenvalue                        ... 7.254e-06
Time for diagonalization                   ...    0.053 sec
Threshold for overlap eigenvalues          ... 1.000e-08
Number of eigenvalues below threshold      ... 0
Time for construction of square roots      ...    0.033 sec
Total time needed                          ...    0.089 sec

Time for model grid setup =    0.264 sec

Loading Hartree-Fock densities                     ... done
Calculating cut-offs                               ... done
Initializing the effective Hamiltonian             ... done
Setting up the integral package (SHARK)            ... done
Starting the Coulomb interaction                   ... done (   0.4 sec)
Reading the grid                                   ... done
Mapping shells                                     ... done
Starting the XC term evaluation                    ... done (   0.2 sec)
  promolecular density results
     # of electrons  =    143.987652206
     EX              =   -132.670245464
     EC              =     -5.061228867
     EX+EC           =   -137.731474331
Transforming the Hamiltonian                       ... done (   0.0 sec)
Diagonalizing the Hamiltonian                      ... done (   0.1 sec)
Back transforming the eigenvectors                 ... done (   0.0 sec)
Now organizing SCF variables                       ... done
-------------------
DFT GRID GENERATION
-------------------

General Integration Accuracy     IntAcc      ... 4.388
Radial Grid Type                 RadialGrid  ... OptM3 with GC (2021)
Angular Grid (max. ang.)         AngularGrid ... 4 (Lebedev-302)
Angular grid pruning method      GridPruning ... 4 (adaptive)
Weight generation scheme         WeightScheme... Becke
Basis function cutoff            BFCut       ... 1.0000e-11
Integration weight cutoff        WCut        ... 1.0000e-14
Angular grids for H and He will be reduced by one unit
Partially contracted basis set               ... off
Rotationally invariant grid construction     ... off

Total number of grid points                  ...   157117
Total number of batches                      ...     2473
Average number of points per batch           ...       63
Average number of grid points per atom       ...     4910
Time for grid setup =    1.212 sec

--------------------
COSX GRID GENERATION
--------------------

GRIDX 1
-------
General Integration Accuracy     IntAcc      ... 3.816
Radial Grid Type                 RadialGrid  ... OptM3 with GC (2021)
Angular Grid (max. ang.)         AngularGrid ... 1 (Lebedev-50)
Angular grid pruning method      GridPruning ... 4 (adaptive)
Weight generation scheme         WeightScheme... Becke
Basis function cutoff            BFCut       ... 1.0000e-11
Integration weight cutoff        WCut        ... 1.0000e-14
Angular grids for H and He will be reduced by one unit
Partially contracted basis set               ... on
Rotationally invariant grid construction     ... off

Total number of grid points                  ...    19882
Total number of batches                      ...      325
Average number of points per batch           ...       61
Average number of grid points per atom       ...      621
UseSFitting                                  ... on

GRIDX 2
-------
General Integration Accuracy     IntAcc      ... 4.020
Radial Grid Type                 RadialGrid  ... OptM3 with GC (2021)
Angular Grid (max. ang.)         AngularGrid ... 2 (Lebedev-110)
Angular grid pruning method      GridPruning ... 4 (adaptive)
Weight generation scheme         WeightScheme... Becke
Basis function cutoff            BFCut       ... 1.0000e-11
Integration weight cutoff        WCut        ... 1.0000e-14
Angular grids for H and He will be reduced by one unit
Partially contracted basis set               ... on
Rotationally invariant grid construction     ... off

Total number of grid points                  ...    43763
Total number of batches                      ...      701
Average number of points per batch           ...       62
Average number of grid points per atom       ...     1368
UseSFitting                                  ... on

GRIDX 3
-------
General Integration Accuracy     IntAcc      ... 4.338
Radial Grid Type                 RadialGrid  ... OptM3 with GC (2021)
Angular Grid (max. ang.)         AngularGrid ... 3 (Lebedev-194)
Angular grid pruning method      GridPruning ... 4 (adaptive)
Weight generation scheme         WeightScheme... Becke
Basis function cutoff            BFCut       ... 1.0000e-11
Integration weight cutoff        WCut        ... 1.0000e-14
Angular grids for H and He will be reduced by one unit
Partially contracted basis set               ... on
Rotationally invariant grid construction     ... off

Total number of grid points                  ...    96709
Total number of batches                      ...     1531
Average number of points per batch           ...       63
Average number of grid points per atom       ...     3022
UseSFitting                                  ... on

Time for X-Grid setup             =    1.273 sec


--------------------
CPCM SOLVATION MODEL
--------------------
CPCM parameters:
  Epsilon                                         ...      38.3000
  Refrac                                          ...       1.4300
  Rsolv                                           ...       1.3000
  Surface type                                    ... GAUSSIAN VDW
  Epsilon function type                           ...         CPCM
Radii:
 Radius for S  used is    4.0818 Bohr (=   2.1600 Ang.)
 Radius for F  used is    3.3335 Bohr (=   1.7640 Ang.)
 Radius for O  used is    3.4469 Bohr (=   1.8240 Ang.)
 Radius for C  used is    3.8550 Bohr (=   2.0400 Ang.)
 Radius for H  used is    2.4944 Bohr (=   1.3200 Ang.)
Calculating surface                               ...        done! (  0.0s)
GEPOL surface points                              ...         1734
GEPOL Volume                                      ...    2100.3623
GEPOL Surface-area                                ...    1106.8937
Calculating surface distance matrix               ...        done! (  0.0s)
Performing Cholesky decomposition & store         ...        done! (  0.2s)
Overall time for CPCM initialization              ...                 0.2s
--------------
SCF ITERATIONS
--------------
ITER       Energy         Delta-E        Max-DP      RMS-DP      [F,P]     Damp
               ***  Starting incremental Fock matrix formation  ***
  0  -1227.1304575262   0.000000000000 0.37340377  0.00238055  0.2864934 0.7000
  1  -1227.3801401815  -0.249682655328 0.33714095  0.00213073  0.1128669 0.7000
                               ***Turning on DIIS***
  2  -1227.4796997023  -0.099559520802 0.28258895  0.00285877  0.0373184 0.0000
  3  -1227.6267243957  -0.147024693453 0.35964004  0.00195852  0.0574941 0.0000
  4  -1227.6654421829  -0.038717787118 0.08768607  0.00058416  0.0151916 0.0000
  5  -1227.6677255326  -0.002283349734 0.05041530  0.00032171  0.0128708 0.0000
                      *** Initiating the SOSCF procedure ***
                           *** Shutting down DIIS ***
                      *** Re-Reading the Fockian *** 
                      *** Removing any level shift *** 
ITER      Energy       Delta-E        Grad      Rot      Max-DP    RMS-DP
  6  -1227.66802070  -0.0002951693  0.000507  0.000507  0.011288  0.000088
               *** Restarting incremental Fock matrix formation ***
  7  -1227.66801921   0.0000014958  0.000181  0.001182  0.009088  0.000073
  8  -1227.66802160  -0.0000023924  0.000208  0.001304  0.001250  0.000017
  9  -1227.66802390  -0.0000023035  0.000090  0.000513  0.001290  0.000017
 10  -1227.66802420  -0.0000002953  0.000033  0.000090  0.000477  0.000004
 11  -1227.66802433  -0.0000001288  0.000026  0.000123  0.000832  0.000008
 12  -1227.66802435  -0.0000000221  0.000018  0.000032  0.000286  0.000002
 13  -1227.66802434   0.0000000058  0.000006  0.000033  0.000192  0.000002
 14  -1227.66802435  -0.0000000048  0.000004  0.000008  0.000215  0.000002
                  ***Gradient check signals convergence***
              ***Rediagonalizing the Fockian in SOSCF/NRSCF***

               *****************************************************
               *                     SUCCESS                       *
               *           SCF CONVERGED AFTER  15 CYCLES          *
               *****************************************************

Old exchange energy                            =    -26.861370542 Eh
New exchange energy                            =    -26.861361866 Eh
Exchange energy change after final integration =      0.000008676 Eh
Total energy after final integration           =  -1227.668015671 Eh
Final COS-X integration done in                =    16.477 sec
Total Energy       :        -1227.66801567 Eh          -33406.54506 eV
  Last Energy change         ...   -1.3711e-10  Tolerance :   1.0000e-08
  Last MAX-Density change    ...    1.7764e-15  Tolerance :   1.0000e-07
             **** THE GBW FILE WAS UPDATED (a.gbw) ****
             **** DENSITY a.scfp WAS UPDATED ****
             **** ENERGY FILE WAS UPDATED (a.en.tmp) ****
             **** THE GBW FILE WAS UPDATED (a.gbw) ****
             **** DENSITY a.scfp WAS UPDATED ****
----------------
ORBITAL ENERGIES
----------------

  NO   OCC          E(Eh)            E(eV) 
   0   2.0000     -88.881316     -2418.5836 
   1   2.0000     -24.703159      -672.2071 
   2   2.0000     -19.169739      -521.6351 
   3   2.0000     -19.103364      -519.8290 
   4   2.0000     -10.268070      -279.4084 
   5   2.0000     -10.255882      -279.0767 
   6   2.0000     -10.243441      -278.7382 
   7   2.0000     -10.217901      -278.0432 
   8   2.0000     -10.199873      -277.5526 
   9   2.0000     -10.190041      -277.2851 
  10   2.0000     -10.188663      -277.2476 
  11   2.0000     -10.179466      -276.9973 
  12   2.0000     -10.178478      -276.9705 
  13   2.0000     -10.175422      -276.8873 
  14   2.0000     -10.173229      -276.8276 
  15   2.0000     -10.171066      -276.7688 
  16   2.0000     -10.167744      -276.6784 
  17   2.0000     -10.163508      -276.5631 
  18   2.0000     -10.160765      -276.4885 
  19   2.0000      -7.959494      -216.5889 
  20   2.0000      -5.921945      -161.1443 
  21   2.0000      -5.917963      -161.0359 
  22   2.0000      -5.915865      -160.9789 
  23   2.0000      -1.244761       -33.8717 
  24   2.0000      -1.089368       -29.6432 
  25   2.0000      -1.051991       -28.6261 
  26   2.0000      -0.908746       -24.7282 
  27   2.0000      -0.889433       -24.2027 
  28   2.0000      -0.818791       -22.2804 
  29   2.0000      -0.789164       -21.4743 
  30   2.0000      -0.772369       -21.0172 
  31   2.0000      -0.770487       -20.9660 
  32   2.0000      -0.741969       -20.1900 
  33   2.0000      -0.717921       -19.5356 
  34   2.0000      -0.682748       -18.5785 
  35   2.0000      -0.655068       -17.8253 
  36   2.0000      -0.637708       -17.3529 
  37   2.0000      -0.614428       -16.7194 
  38   2.0000      -0.584974       -15.9179 
  39   2.0000      -0.560158       -15.2427 
  40   2.0000      -0.552571       -15.0362 
  41   2.0000      -0.540284       -14.7019 
  42   2.0000      -0.518887       -14.1196 
  43   2.0000      -0.518412       -14.1067 
  44   2.0000      -0.503393       -13.6980 
  45   2.0000      -0.492122       -13.3913 
  46   2.0000      -0.479538       -13.0489 
  47   2.0000      -0.477176       -12.9846 
  48   2.0000      -0.457650       -12.4533 
  49   2.0000      -0.445644       -12.1266 
  50   2.0000      -0.441762       -12.0210 
  51   2.0000      -0.433805       -11.8044 
  52   2.0000      -0.432152       -11.7595 
  53   2.0000      -0.421888       -11.4802 
  54   2.0000      -0.421032       -11.4569 
  55   2.0000      -0.411752       -11.2043 
  56   2.0000      -0.396546       -10.7906 
  57   2.0000      -0.391405       -10.6507 
  58   2.0000      -0.387618       -10.5476 
  59   2.0000      -0.385307       -10.4847 
  60   2.0000      -0.372471       -10.1355 
  61   2.0000      -0.367541       -10.0013 
  62   2.0000      -0.360939        -9.8216 
  63   2.0000      -0.345730        -9.4078 
  64   2.0000      -0.338118        -9.2007 
  65   2.0000      -0.330627        -8.9968 
  66   2.0000      -0.308388        -8.3917 
  67   2.0000      -0.268241        -7.2992 
  68   2.0000      -0.264256        -7.1908 
  69   2.0000      -0.254447        -6.9238 
  70   2.0000      -0.243670        -6.6306 
  71   2.0000      -0.224922        -6.1204 
  72   0.0000      -0.083983        -2.2853 
  73   0.0000      -0.023833        -0.6485 
  74   0.0000      -0.011162        -0.3037 
  75   0.0000       0.027181         0.7396 
  76   0.0000       0.027523         0.7489 
  77   0.0000       0.054407         1.4805 
  78   0.0000       0.054505         1.4832 
  79   0.0000       0.058223         1.5843 
  80   0.0000       0.062084         1.6894 
  81   0.0000       0.072063         1.9609 
  82   0.0000       0.080076         2.1790 
  83   0.0000       0.082847         2.2544 
  84   0.0000       0.088429         2.4063 
  85   0.0000       0.091872         2.5000 
  86   0.0000       0.101698         2.7674 
  87   0.0000       0.103414         2.8140 
  88   0.0000       0.112684         3.0663 
  89   0.0000       0.117330         3.1927 
  90   0.0000       0.124203         3.3797 
  91   0.0000       0.125296         3.4095 
  92   0.0000       0.126825         3.4511 
  93   0.0000       0.139955         3.8084 
  94   0.0000       0.141903         3.8614 
  95   0.0000       0.149900         4.0790 
  96   0.0000       0.158449         4.3116 
  97   0.0000       0.165223         4.4959 
  98   0.0000       0.175391         4.7726 
  99   0.0000       0.178305         4.8519 
 100   0.0000       0.185146         5.0381 
 101   0.0000       0.192229         5.2308 
 102   0.0000       0.194759         5.2997 
 103   0.0000       0.203492         5.5373 
 104   0.0000       0.208059         5.6616 
 105   0.0000       0.209693         5.7060 
 106   0.0000       0.215334         5.8595 
 107   0.0000       0.218648         5.9497 
 108   0.0000       0.223240         6.0747 
 109   0.0000       0.227073         6.1790 
 110   0.0000       0.233282         6.3479 
 111   0.0000       0.238422         6.4878 
 112   0.0000       0.245901         6.6913 
 113   0.0000       0.249808         6.7976 
 114   0.0000       0.257433         7.0051 
 115   0.0000       0.260373         7.0851 
 116   0.0000       0.265601         7.2274 
 117   0.0000       0.272826         7.4240 
 118   0.0000       0.277897         7.5620 
 119   0.0000       0.281497         7.6599 
 120   0.0000       0.290909         7.9160 
 121   0.0000       0.296474         8.0675 
 122   0.0000       0.298195         8.1143 
 123   0.0000       0.303298         8.2532 
 124   0.0000       0.313391         8.5278 
 125   0.0000       0.324153         8.8207 
 126   0.0000       0.325692         8.8625 
 127   0.0000       0.327808         8.9201 
 128   0.0000       0.336249         9.1498 
 129   0.0000       0.342176         9.3111 
 130   0.0000       0.344334         9.3698 
 131   0.0000       0.349293         9.5047 
 132   0.0000       0.356850         9.7104 
 133   0.0000       0.367288         9.9944 
 134   0.0000       0.369141        10.0448 
 135   0.0000       0.370896        10.0926 
 136   0.0000       0.378931        10.3112 
 137   0.0000       0.381796        10.3892 
 138   0.0000       0.388516        10.5720 
 139   0.0000       0.396313        10.7842 
 140   0.0000       0.399817        10.8796 
 141   0.0000       0.401549        10.9267 
 142   0.0000       0.406987        11.0747 
 143   0.0000       0.409477        11.1424 
 144   0.0000       0.413920        11.2633 
 145   0.0000       0.417806        11.3691 
 146   0.0000       0.421239        11.4625 
 147   0.0000       0.425216        11.5707 
 148   0.0000       0.429989        11.7006 
 149   0.0000       0.433048        11.7838 
 150   0.0000       0.445503        12.1228 
 151   0.0000       0.449733        12.2379 
 152   0.0000       0.454590        12.3700 
 153   0.0000       0.459831        12.5126 
 154   0.0000       0.464815        12.6483 
 155   0.0000       0.470151        12.7935 
 156   0.0000       0.478113        13.0101 
 157   0.0000       0.480215        13.0673 
 158   0.0000       0.484222        13.1764 
 159   0.0000       0.488106        13.2820 
 160   0.0000       0.495323        13.4784 
 161   0.0000       0.496864        13.5203 
 162   0.0000       0.507354        13.8058 
 163   0.0000       0.510181        13.8827 
 164   0.0000       0.521517        14.1912 
 165   0.0000       0.524832        14.2814 
 166   0.0000       0.534358        14.5406 
 167   0.0000       0.542979        14.7752 
 168   0.0000       0.547475        14.8976 
 169   0.0000       0.558416        15.1953 
 170   0.0000       0.569074        15.4853 
 171   0.0000       0.578054        15.7296 
 172   0.0000       0.583658        15.8821 
 173   0.0000       0.590959        16.0808 
 174   0.0000       0.593950        16.1622 
 175   0.0000       0.598120        16.2757 
 176   0.0000       0.613434        16.6924 
 177   0.0000       0.616417        16.7736 
 178   0.0000       0.623776        16.9738 
 179   0.0000       0.631717        17.1899 
 180   0.0000       0.642540        17.4844 
 181   0.0000       0.647476        17.6187 
 182   0.0000       0.652260        17.7489 
 183   0.0000       0.657386        17.8884 
 184   0.0000       0.660283        17.9672 
 185   0.0000       0.670366        18.2416 
 186   0.0000       0.673677        18.3317 
 187   0.0000       0.683919        18.6104 
 188   0.0000       0.692609        18.8468 
 189   0.0000       0.697163        18.9708 
 190   0.0000       0.703965        19.1559 
 191   0.0000       0.706307        19.2196 
 192   0.0000       0.713244        19.4083 
 193   0.0000       0.718759        19.5584 
 194   0.0000       0.721722        19.6390 
 195   0.0000       0.729395        19.8478 
 196   0.0000       0.730954        19.8903 
 197   0.0000       0.746439        20.3116 
 198   0.0000       0.754065        20.5191 
 199   0.0000       0.765990        20.8437 
 200   0.0000       0.769929        20.9508 
 201   0.0000       0.776171        21.1207 
 202   0.0000       0.786315        21.3967 
 203   0.0000       0.791750        21.5446 
 204   0.0000       0.798313        21.7232 
 205   0.0000       0.808518        22.0009 
 206   0.0000       0.833511        22.6810 
 207   0.0000       0.833759        22.6877 
 208   0.0000       0.837796        22.7976 
 209   0.0000       0.850011        23.1300 
 210   0.0000       0.853657        23.2292 
 211   0.0000       0.855772        23.2867 
 212   0.0000       0.869441        23.6587 
 213   0.0000       0.873060        23.7572 
 214   0.0000       0.873747        23.7759 
 215   0.0000       0.887532        24.1510 
 216   0.0000       0.897204        24.4142 
 217   0.0000       0.901762        24.5382 
 218   0.0000       0.904760        24.6198 
 219   0.0000       0.917783        24.9742 
 220   0.0000       0.937972        25.5235 
 221   0.0000       0.943614        25.6770 
 222   0.0000       0.951283        25.8857 
 223   0.0000       0.959085        26.0980 
 224   0.0000       0.960362        26.1328 
 225   0.0000       0.970375        26.4052 
 226   0.0000       0.978575        26.6284 
 227   0.0000       0.988814        26.9070 
 228   0.0000       0.993880        27.0448 
 229   0.0000       1.001576        27.2543 
 230   0.0000       1.011939        27.5363 
 231   0.0000       1.024180        27.8694 
 232   0.0000       1.033937        28.1348 
 233   0.0000       1.047917        28.5153 
 234   0.0000       1.053137        28.6573 
 235   0.0000       1.057175        28.7672 
 236   0.0000       1.062693        28.9173 
 237   0.0000       1.087168        29.5833 
 238   0.0000       1.089612        29.6499 
 239   0.0000       1.093543        29.7568 
 240   0.0000       1.101494        29.9732 
 241   0.0000       1.112242        30.2657 
 242   0.0000       1.123073        30.5604 
 243   0.0000       1.130197        30.7542 
 244   0.0000       1.150441        31.3051 
 245   0.0000       1.151492        31.3337 
 246   0.0000       1.174220        31.9522 
 247   0.0000       1.184502        32.2319 
 248   0.0000       1.191192        32.4140 
 249   0.0000       1.205438        32.8016 
 250   0.0000       1.217327        33.1251 
 251   0.0000       1.224664        33.3248 
 252   0.0000       1.233504        33.5653 
 253   0.0000       1.243040        33.8248 
 254   0.0000       1.248957        33.9858 
 255   0.0000       1.259452        34.2714 
 256   0.0000       1.267339        34.4861 
 257   0.0000       1.287266        35.0283 
 258   0.0000       1.320943        35.9447 
 259   0.0000       1.327813        36.1316 
 260   0.0000       1.332338        36.2548 
 261   0.0000       1.341689        36.5092 
 262   0.0000       1.351727        36.7824 
 263   0.0000       1.359991        37.0072 
 264   0.0000       1.366935        37.1962 
 265   0.0000       1.379632        37.5417 
 266   0.0000       1.383541        37.6481 
 267   0.0000       1.392293        37.8862 
 268   0.0000       1.402395        38.1611 
 269   0.0000       1.409679        38.3593 
 270   0.0000       1.414379        38.4872 
 271   0.0000       1.420415        38.6515 
 272   0.0000       1.429560        38.9003 
 273   0.0000       1.454736        39.5854 
 274   0.0000       1.463171        39.8149 
 275   0.0000       1.466528        39.9062 
 276   0.0000       1.481828        40.3226 
 277   0.0000       1.487542        40.4781 
 278   0.0000       1.491502        40.5858 
 279   0.0000       1.502712        40.8909 
 280   0.0000       1.514095        41.2006 
 281   0.0000       1.521565        41.4039 
 282   0.0000       1.534145        41.7462 
 283   0.0000       1.538058        41.8527 
 284   0.0000       1.539770        41.8993 
 285   0.0000       1.544693        42.0332 
 286   0.0000       1.552038        42.2331 
 287   0.0000       1.562736        42.5242 
 288   0.0000       1.571436        42.7609 
 289   0.0000       1.574776        42.8518 
 290   0.0000       1.578661        42.9575 
 291   0.0000       1.585225        43.1362 
 292   0.0000       1.592951        43.3464 
 293   0.0000       1.601965        43.5917 
 294   0.0000       1.605782        43.6955 
 295   0.0000       1.615051        43.9478 
 296   0.0000       1.624840        44.2141 
 297   0.0000       1.636587        44.5338 
 298   0.0000       1.639928        44.6247 
 299   0.0000       1.649259        44.8786 
 300   0.0000       1.653907        45.0051 
 301   0.0000       1.663814        45.2747 
 302   0.0000       1.671283        45.4779 
 303   0.0000       1.677526        45.6478 
 304   0.0000       1.697849        46.2008 
 305   0.0000       1.703026        46.3417 
 306   0.0000       1.711131        46.5622 
 307   0.0000       1.729489        47.0618 
 308   0.0000       1.739791        47.3421 
 309   0.0000       1.746123        47.5144 
 310   0.0000       1.751686        47.6658 
 311   0.0000       1.756115        47.7863 
 312   0.0000       1.775737        48.3203 
 313   0.0000       1.786556        48.6147 
 314   0.0000       1.789637        48.6985 
 315   0.0000       1.797019        48.8994 
 316   0.0000       1.805002        49.1166 
 317   0.0000       1.826566        49.7034 
 318   0.0000       1.845308        50.2134 
 319   0.0000       1.856223        50.5104 
 320   0.0000       1.881227        51.1908 
 321   0.0000       1.884799        51.2880 
 322   0.0000       1.897810        51.6420 
 323   0.0000       1.908175        51.9241 
 324   0.0000       1.921844        52.2960 
 325   0.0000       1.933418        52.6110 
 326   0.0000       1.954668        53.1892 
 327   0.0000       1.964246        53.4498 
 328   0.0000       1.985920        54.0396 
 329   0.0000       1.990795        54.1723 
 330   0.0000       2.008707        54.6597 
 331   0.0000       2.018394        54.9233 
 332   0.0000       2.030078        55.2412 
 333   0.0000       2.034594        55.3641 
 334   0.0000       2.056284        55.9543 
 335   0.0000       2.060793        56.0770 
 336   0.0000       2.075209        56.4693 
 337   0.0000       2.087820        56.8125 
 338   0.0000       2.109575        57.4045 
 339   0.0000       2.123984        57.7965 
 340   0.0000       2.143630        58.3311 
 341   0.0000       2.149551        58.4923 
 342   0.0000       2.161441        58.8158 
 343   0.0000       2.182120        59.3785 
 344   0.0000       2.197153        59.7876 
 345   0.0000       2.205290        60.0090 
 346   0.0000       2.213330        60.2278 
 347   0.0000       2.217963        60.3538 
 348   0.0000       2.232399        60.7467 
 349   0.0000       2.247610        61.1606 
 350   0.0000       2.272269        61.8316 
 351   0.0000       2.280184        62.0470 
 352   0.0000       2.312445        62.9248 
 353   0.0000       2.314254        62.9741 
 354   0.0000       2.326661        63.3117 
 355   0.0000       2.347583        63.8810 
 356   0.0000       2.351797        63.9957 
 357   0.0000       2.364840        64.3506 
 358   0.0000       2.376599        64.6706 
 359   0.0000       2.384652        64.8897 
 360   0.0000       2.394974        65.1706 
 361   0.0000       2.395407        65.1823 
 362   0.0000       2.413975        65.6876 
 363   0.0000       2.424516        65.9744 
 364   0.0000       2.432663        66.1961 
 365   0.0000       2.435703        66.2788 
 366   0.0000       2.443311        66.4859 
 367   0.0000       2.456859        66.8545 
 368   0.0000       2.467185        67.1355 
 369   0.0000       2.474287        67.3288 
 370   0.0000       2.490354        67.7660 
 371   0.0000       2.502460        68.0954 
 372   0.0000       2.508113        68.2492 
 373   0.0000       2.535038        68.9819 
 374   0.0000       2.544447        69.2379 
 375   0.0000       2.561850        69.7115 
 376   0.0000       2.578990        70.1779 
 377   0.0000       2.592687        70.5506 
 378   0.0000       2.609428        71.0061 
 379   0.0000       2.624209        71.4083 
 380   0.0000       2.630772        71.5870 
 381   0.0000       2.645006        71.9743 
 382   0.0000       2.658685        72.3465 
 383   0.0000       2.668022        72.6006 
 384   0.0000       2.674787        72.7846 
 385   0.0000       2.683292        73.0161 
 386   0.0000       2.702164        73.5296 
 387   0.0000       2.717272        73.9407 
 388   0.0000       2.732037        74.3425 
 389   0.0000       2.736359        74.4601 
 390   0.0000       2.749288        74.8119 
 391   0.0000       2.753069        74.9148 
 392   0.0000       2.758098        75.0517 
 393   0.0000       2.769666        75.3664 
 394   0.0000       2.778387        75.6038 
 395   0.0000       2.780507        75.6615 
 396   0.0000       2.799008        76.1649 
 397   0.0000       2.820135        76.7398 
 398   0.0000       2.829511        76.9949 
 399   0.0000       2.856705        77.7349 
 400   0.0000       2.863383        77.9166 
 401   0.0000       2.869690        78.0882 
 402   0.0000       2.876329        78.2689 
 403   0.0000       2.887936        78.5847 
 404   0.0000       2.892786        78.7167 
 405   0.0000       2.904951        79.0477 
 406   0.0000       2.925862        79.6168 
 407   0.0000       2.928367        79.6849 
 408   0.0000       2.939098        79.9769 
 409   0.0000       2.940308        80.0098 
 410   0.0000       2.951986        80.3276 
 411   0.0000       2.961545        80.5877 
 412   0.0000       2.973050        80.9008 
 413   0.0000       2.980218        81.0958 
 414   0.0000       2.981325        81.1260 
 415   0.0000       2.986976        81.2798 
 416   0.0000       3.001099        81.6641 
 417   0.0000       3.004958        81.7691 
 418   0.0000       3.013021        81.9885 
 419   0.0000       3.023137        82.2637 
 420   0.0000       3.031180        82.4826 
 421   0.0000       3.040625        82.7396 
 422   0.0000       3.062162        83.3257 
 423   0.0000       3.068757        83.5051 
 424   0.0000       3.075842        83.6979 
 425   0.0000       3.084596        83.9361 
 426   0.0000       3.098646        84.3185 
 427   0.0000       3.103214        84.4427 
 428   0.0000       3.112802        84.7036 
 429   0.0000       3.118166        84.8496 
 430   0.0000       3.124782        85.0297 
 431   0.0000       3.143911        85.5502 
 432   0.0000       3.149875        85.7125 
 433   0.0000       3.160579        86.0037 
 434   0.0000       3.170306        86.2684 
 435   0.0000       3.186162        86.6999 
 436   0.0000       3.194613        86.9299 
 437   0.0000       3.214144        87.4613 
 438   0.0000       3.224784        87.7508 
 439   0.0000       3.237337        88.0924 
 440   0.0000       3.238650        88.1281 
 441   0.0000       3.253070        88.5205 
 442   0.0000       3.255661        88.5910 
 443   0.0000       3.271825        89.0309 
 444   0.0000       3.277992        89.1987 
 445   0.0000       3.288196        89.4764 
 446   0.0000       3.296676        89.7071 
 447   0.0000       3.299252        89.7772 
 448   0.0000       3.316823        90.2553 
 449   0.0000       3.327348        90.5417 
 450   0.0000       3.342666        90.9586 
 451   0.0000       3.365252        91.5732 
 452   0.0000       3.372606        91.7733 
 453   0.0000       3.396308        92.4183 
 454   0.0000       3.416979        92.9807 
 455   0.0000       3.423066        93.1464 
 456   0.0000       3.427493        93.2668 
 457   0.0000       3.440041        93.6083 
 458   0.0000       3.451440        93.9185 
 459   0.0000       3.476583        94.6026 
 460   0.0000       3.486944        94.8846 
 461   0.0000       3.496734        95.1510 
 462   0.0000       3.510658        95.5299 
 463   0.0000       3.533131        96.1414 
 464   0.0000       3.547815        96.5409 
 465   0.0000       3.554871        96.7329 
 466   0.0000       3.573378        97.2366 
 467   0.0000       3.582853        97.4944 
 468   0.0000       3.597824        97.9018 
 469   0.0000       3.606588        98.1402 
 470   0.0000       3.618686        98.4695 
 471   0.0000       3.653224        99.4093 
 472   0.0000       3.661139        99.6246 
 473   0.0000       3.701272       100.7167 
 474   0.0000       3.739560       101.7586 
 475   0.0000       3.753665       102.1424 
 476   0.0000       3.773685       102.6872 
 477   0.0000       3.784532       102.9824 
 478   0.0000       3.802181       103.4626 
 479   0.0000       3.814872       103.8079 
 480   0.0000       3.842617       104.5629 
 481   0.0000       3.866799       105.2209 
 482   0.0000       3.887454       105.7830 
 483   0.0000       3.897135       106.0464 
 484   0.0000       3.925678       106.8231 
 485   0.0000       3.951376       107.5224 
 486   0.0000       3.984034       108.4111 
 487   0.0000       4.009308       109.0988 
 488   0.0000       4.061256       110.5124 
 489   0.0000       4.106939       111.7555 
 490   0.0000       4.115039       111.9759 
 491   0.0000       4.141748       112.7027 
 492   0.0000       4.147902       112.8702 
 493   0.0000       4.178932       113.7145 
 494   0.0000       4.206858       114.4744 
 495   0.0000       4.250310       115.6568 
 496   0.0000       4.305384       117.1555 
 497   0.0000       4.323893       117.6591 
 498   0.0000       4.377984       119.1310 
 499   0.0000       4.497581       122.3854 
 500   0.0000       4.531152       123.2989 
 501   0.0000       4.599149       125.1492 
 502   0.0000       4.771153       129.8297 
 503   0.0000       6.339544       172.5078 
 504   0.0000       6.496770       176.7861 
 505   0.0000       6.502401       176.9393 
 506   0.0000       6.562683       178.5797 
 507   0.0000       6.568651       178.7421 
 508   0.0000       6.623527       180.2353 
 509   0.0000       6.733614       183.2309 
 510   0.0000       6.849882       186.3948 
 511   0.0000       6.925169       188.4434 
 512   0.0000       7.095342       193.0741 
 513   0.0000       8.308035       226.0731 
 514   0.0000       8.471042       230.5088 
 515   0.0000       8.488795       230.9919 
 516   0.0000       8.809211       239.7108 
 517   0.0000       8.836198       240.4452 
 518   0.0000       8.855840       240.9797 
 519   0.0000       9.204398       250.4644 
 520   0.0000       9.241148       251.4644 
 521   0.0000      19.641737       534.4788 
 522   0.0000      21.669432       589.6552 
 523   0.0000      21.714089       590.8704 
 524   0.0000      22.067228       600.4798 
 525   0.0000      22.080634       600.8446 
 526   0.0000      22.145174       602.6008 
 527   0.0000      22.228892       604.8789 
 528   0.0000      22.302151       606.8724 
 529   0.0000      22.320625       607.3751 
 530   0.0000      22.452154       610.9542 
 531   0.0000      22.487613       611.9191 
 532   0.0000      22.583268       614.5220 
 533   0.0000      22.652110       616.3952 
 534   0.0000      22.723109       618.3272 
 535   0.0000      22.827495       621.1677 
 536   0.0000      23.146383       629.8451 
 537   0.0000      43.914703      1194.9798 
 538   0.0000      43.932917      1195.4754 
 539   0.0000      57.161187      1555.4350 
Total SCF time: 0 days 0 hours 2 min 19 sec 

Maximum memory used throughout the entire SCF-calculation: 100.6 MB


-------------------------------------------------------------------------------
                          DFT DISPERSION CORRECTION                            
                                                                               
                              DFTD3 V3.1  Rev 1                                
                          USING Becke-Johnson damping                          
-------------------------------------------------------------------------------
-------------------------   ----------------
Dispersion correction           -0.066944539
-------------------------   ----------------


-------------------------   --------------------
FINAL SINGLE POINT ENERGY     -1227.734960210868
-------------------------   --------------------



           ************************************************************
           *        Program running with 8 parallel MPI-processes     *
           *              working on a common directory               *
           ************************************************************
------------------------------------------------------------------------------
                         ORCA SCF GRADIENT CALCULATION
------------------------------------------------------------------------------

 ... reading COSX grid (gridx3)
Gradient of the Kohn-Sham DFT energy:
Kohn-Sham wavefunction type      ... RKS
Hartree-Fock exchange scaling    ...    0.200
Number of operators              ...    1
Number of atoms                  ...   32
Basis set dimensions             ...  540
Integral neglect threshold       ... 2.5e-11
Integral primitive cutoff        ... 2.5e-12
SHARK Integral package           ... ON

Nuc. rep. gradient       (SHARK) ... done (  0.0 sec)
HCore & Overlap gradient (SHARK) ... done (  0.5 sec)
RI-J gradient            (SHARK) ... done (  2.5 sec)
COSX-gradient                    ... done ( 21.9 sec)
Exchange-correlation gradient    ... done
Dispersion correction            ... done

------------------
CARTESIAN GRADIENT
------------------

   1   S   :    0.022025840    0.016718622   -0.022524929
   2   F   :   -0.005846059    0.001319266   -0.015718325
   3   O   :   -0.009247411   -0.015249012    0.044738991
   4   O   :    0.010698872    0.003759324    0.012505409
   5   C   :   -0.008426196    0.001176095   -0.018401152
   6   C   :    0.006351547    0.013617844   -0.035283069
   7   H   :   -0.005568354   -0.004991106    0.003251995
   8   C   :    0.025237057    0.010643833    0.008914114
   9   C   :    0.014566666    0.001266134    0.032188757
  10   H   :   -0.000842289    0.000810211   -0.004926538
  11   C   :   -0.011443885   -0.013223058    0.030984267
  12   H   :   -0.000059947    0.000400622   -0.005869265
  13   C   :   -0.009499578   -0.008412800    0.002673121
  14   C   :    0.003483125    0.007036231   -0.024273532
  15   C   :    0.032473531    0.024561640   -0.031908645
  16   H   :   -0.000631131   -0.001277982    0.006940561
  17   C   :   -0.031151961   -0.020629675    0.019803219
  18   H   :   -0.003167352   -0.001595434   -0.002569631
  19   C   :    0.018124064    0.009177607    0.011018232
  20   C   :   -0.018139962   -0.016797777    0.032175518
  21   H   :    0.002466298    0.001765528   -0.002669002
  22   C   :   -0.013941060   -0.010644012    0.011333096
  23   C   :   -0.009466261    0.002058149   -0.040356349
  24   H   :    0.007115482    0.004095547    0.003551127
  25   C   :   -0.000366764    0.003146511   -0.012146328
  26   H   :   -0.002188357   -0.002431602    0.004717297
  27   H   :    0.002323007    0.000331807   -0.003542762
  28   H   :    0.000288726    0.002846764   -0.002901871
  29   C   :   -0.005286096    0.000377080   -0.001665821
  30   H   :   -0.003166492   -0.002930953   -0.000156923
  31   H   :   -0.003167658   -0.003303287   -0.000042319
  32   H   :   -0.003764904   -0.003280768    0.000363574

Difference to translation invariance:
           :   -0.0002175032    0.0003413494    0.0002028146

Difference to rotation invariance:
           :   -0.0001447474   -0.0064457781    0.0052376911

Norm of the cartesian gradient     ...    0.1400792464
RMS gradient                       ...    0.0142967782
MAX gradient                       ...    0.0447389907

-------
TIMINGS
-------

Total SCF gradient time            ...       32.042 sec

One electron gradient       ....       0.537 sec  (  1.7%)
RI-J Coulomb gradient       ....       2.525 sec  (  7.9%)
COSX gradient               ....      21.945 sec  ( 68.5%)
XC gradient                 ....       4.234 sec  ( 13.2%)
CPCM gradient               ....       0.877 sec  (  2.7%)
   A-Matrix (El+Nuc)        ....       0.187 sec  (  0.6%)
   Potential                ....       0.690 sec  (  2.2%)

Maximum memory used throughout the entire SCFGRAD-calculation: 83.2 MB
------------------------------------------------------------------------------
                         ORCA GEOMETRY RELAXATION STEP
------------------------------------------------------------------------------

Reading the OPT-File                    .... done
Getting information on internals        .... done
Copying old internal coords+grads       .... done
Making the new internal coordinates     .... (new redundants).... done
Validating the new internal coordinates .... (new redundants).... done
Calculating the B-matrix                .... done
Calculating the G,G- and P matrices     .... done
Transforming gradient to internals      .... done
Projecting the internal gradient        .... done
Number of atoms                         ....  32
Number of internal coordinates          .... 153
Current Energy                          .... -1227.734960211 Eh
Current gradient norm                   ....     0.140079246 Eh/bohr
Maximum allowed component of the step   ....  0.300
Current trust radius                    ....  0.300
Evaluating the initial hessian          ....  (Almloef) done
Projecting the Hessian                  .... done
Forming the augmented Hessian           .... done
Diagonalizing the augmented Hessian     .... done
Last element of RFO vector              ....  0.978543859
Lowest eigenvalues of augmented Hessian:
 -0.026862494  0.014742962  0.015125711  0.015899274  0.017011543
Length of the computed step             ....  0.210556357
The final length of the internal step   ....  0.210556357
Converting the step to cartesian space:
 Initial RMS(Int)=    0.0170224725
Transforming coordinates:
 Iter   0:  RMS(Cart)=    0.0718304102 RMS(Int)=    0.8783962331
 Iter   1:  RMS(Cart)=    0.0003037410 RMS(Int)=    0.0001752758
 Iter   2:  RMS(Cart)=    0.0000073550 RMS(Int)=    0.0000032868
 Iter   3:  RMS(Cart)=    0.0000002340 RMS(Int)=    0.0000001488
 Iter   4:  RMS(Cart)=    0.0000000076 RMS(Int)=    0.0000000030
done
Storing new coordinates                 .... done

                                .--------------------.
          ----------------------|Geometry convergence|-------------------------
          Item                value                   Tolerance       Converged
          ---------------------------------------------------------------------
          RMS gradient        0.0111099701            0.0001000000      NO
          MAX gradient        0.0489968088            0.0003000000      NO
          RMS step            0.0170224725            0.0020000000      NO
          MAX step            0.0559360293            0.0040000000      NO
          ........................................................
          Max(Bonds)      0.0296      Max(Angles)    1.83
          Max(Dihed)        1.57      Max(Improp)    0.00
          ---------------------------------------------------------------------

The optimization has not yet converged - more geometry cycles are needed


    ---------------------------------------------------------------------------
                         Redundant Internal Coordinates
                            (Angstroem and degrees)

        Definition                    Value    dE/dq     Step     New-Value
    ----------------------------------------------------------------------------
     1. B(C   4,F   1)                1.3401 -0.016415  0.0133    1.3534   
     2. B(C   5,C   4)                1.3602 -0.026074  0.0191    1.3793   
     3. B(H   6,C   5)                1.0890  0.006611 -0.0090    1.0800   
     4. B(C   7,C   5)                1.3528 -0.041229  0.0295    1.3823   
     5. B(C   7,O   3)                1.3393 -0.012991  0.0098    1.3491   
     6. B(C   8,C   7)                1.3699 -0.033342  0.0254    1.3953   
     7. B(H   9,C   8)                1.0890  0.004533 -0.0062    1.0828   
     8. B(C  10,C   8)                1.3449 -0.032035  0.0222    1.3671   
     9. B(H  11,C  10)                1.0890  0.005181 -0.0071    1.0819   
    10. B(C  12,C  10)                1.3806 -0.030270  0.0236    1.4042   
    11. B(C  12,C   4)                1.3625 -0.035740  0.0262    1.3887   
    12. B(C  13,C  12)                1.4705 -0.018558  0.0200    1.4905   
    13. B(C  13,O   2)                1.2051 -0.047988  0.0225    1.2275   
    14. B(C  14,C  13)                1.4509 -0.019256  0.0194    1.4702   
    15. B(H  15,C  14)                1.0889  0.006878 -0.0094    1.0796   
    16. B(C  16,C  14)                1.3065 -0.048997  0.0296    1.3361   
    17. B(H  17,C  16)                1.0890  0.001212 -0.0017    1.0874   
    18. B(C  18,C  16)                1.4226 -0.011897  0.0108    1.4334   
    19. B(C  18,S   0)                1.6985 -0.027987  0.0253    1.7238   
    20. B(C  19,C  18)                1.3471 -0.033937  0.0238    1.3709   
    21. B(H  20,C  19)                1.0891  0.003748 -0.0051    1.0839   
    22. B(C  21,C  19)                1.3925 -0.025765  0.0218    1.4143   
    23. B(C  22,C  21)                1.3381 -0.039984  0.0274    1.3655   
    24. B(C  22,S   0)                1.6825 -0.022446  0.0194    1.7019   
    25. B(H  23,C  22)                1.0889  0.005937 -0.0081    1.0808   
    26. B(C  24,O   3)                1.4110 -0.013034  0.0127    1.4236   
    27. B(H  25,C  24)                1.0890  0.001906 -0.0026    1.0864   
    28. B(H  26,C  24)                1.0890 -0.002579  0.0035    1.0925   
    29. B(H  27,C  24)                1.0890 -0.002764  0.0038    1.0928   
    30. B(C  28,C  21)                1.4777 -0.017937  0.0198    1.4975   
    31. B(H  29,C  28)                1.0891 -0.001076  0.0015    1.0905   
    32. B(H  30,C  28)                1.0889 -0.000760  0.0010    1.0900   
    33. B(H  31,C  28)                1.0890 -0.002400  0.0033    1.0923   
    34. A(C  18,S   0,C  22)           91.73 -0.003088    0.13     91.87   
    35. A(C   7,O   3,C  24)          118.78 -0.002206    0.28    119.06   
    36. A(F   1,C   4,C  12)          120.00 -0.006138    0.77    120.77   
    37. A(C   5,C   4,C  12)          124.50  0.003146   -0.41    124.09   
    38. A(F   1,C   4,C   5)          115.49  0.002992   -0.36    115.13   
    39. A(C   4,C   5,H   6)          120.75  0.006195   -0.90    119.84   
    40. A(C   4,C   5,C   7)          118.50 -0.002636    0.37    118.86   
    41. A(H   6,C   5,C   7)          120.76 -0.003559    0.54    121.29   
    42. A(O   3,C   7,C   5)          124.62  0.000778   -0.12    124.51   
    43. A(O   3,C   7,C   8)          115.69 -0.003305    0.38    116.07   
    44. A(C   5,C   7,C   8)          119.68  0.002518   -0.25    119.43   
    45. A(H   9,C   8,C  10)          120.06 -0.002485    0.35    120.41   
    46. A(C   7,C   8,H   9)          120.13  0.002134   -0.33    119.80   
    47. A(C   7,C   8,C  10)          119.82  0.000350   -0.02    119.79   
    48. A(H  11,C  10,C  12)          118.50  0.002928   -0.41    118.09   
    49. A(C   8,C  10,C  12)          123.01 -0.000379    0.01    123.02   
    50. A(C   8,C  10,H  11)          118.49 -0.002549    0.40    118.89   
    51. A(C  10,C  12,C  13)          117.42  0.002930   -0.33    117.08   
    52. A(C   4,C  12,C  13)          128.07  0.000058    0.04    128.11   
    53. A(C   4,C  12,C  10)          114.48 -0.003006    0.31    114.80   
    54. A(C  12,C  13,C  14)          121.95  0.004391   -0.56    121.39   
    55. A(O   2,C  13,C  14)          119.15 -0.006450    0.79    119.94   
    56. A(O   2,C  13,C  12)          118.89  0.002048   -0.21    118.68   
    57. A(H  15,C  14,C  16)          119.37 -0.001577    0.24    119.60   
    58. A(C  13,C  14,C  16)          121.30 -0.000280    0.04    121.34   
    59. A(C  13,C  14,H  15)          119.33  0.001857   -0.28    119.05   
    60. A(H  17,C  16,C  18)          116.15  0.003802   -0.58    115.58   
    61. A(C  14,C  16,C  18)          127.69  0.001066   -0.12    127.57   
    62. A(C  14,C  16,H  17)          116.15 -0.004869    0.70    116.86   
    63. A(C  16,C  18,C  19)          127.02  0.003445   -0.39    126.63   
    64. A(S   0,C  18,C  19)          110.00 -0.001688    0.15    110.15   
    65. A(S   0,C  18,C  16)          122.98 -0.001757    0.25    123.22   
    66. A(C  18,C  19,H  20)          122.78  0.000023   -0.10    122.69   
    67. A(H  20,C  19,C  21)          122.79 -0.003120    0.37    123.17   
    68. A(C  18,C  19,C  21)          114.42  0.003097   -0.28    114.14   
    69. A(C  19,C  21,C  28)          124.15 -0.001123    0.05    124.21   
    70. A(C  22,C  21,C  28)          124.95 -0.000500   -0.03    124.92   
    71. A(C  19,C  21,C  22)          110.89  0.001623   -0.03    110.86   
    72. A(C  21,C  22,H  23)          123.51 -0.006904    0.99    124.49   
[...]
     61      -0.195910   0.000211   0.000314   0.000285   0.000027   0.002285
     62       0.896111  -0.000973  -0.001446  -0.000604  -0.000121  -0.011587
     63       0.001799  -0.000000  -0.000007   0.000064  -0.000005  -0.003588
     64       0.001030   0.000001  -0.000003   0.000037  -0.000003  -0.001908
     65       0.002725  -0.000010   0.000017   0.000082   0.000009   0.003286
     66      -0.000558  -0.000004   0.000010   0.000156  -0.000005  -0.016148
     67      -0.000309  -0.000001   0.000006   0.000088  -0.000004  -0.010058
     68      -0.000467   0.000004  -0.000035   0.000633  -0.000058  -0.086251
     69       0.002953  -0.000014   0.000089  -0.001964   0.000146   0.210143
     70       0.001787  -0.000005   0.000058  -0.001193   0.000090   0.128530
     71       0.013042  -0.000052   0.000393  -0.008783   0.000668   0.964980
     72      -0.000006   0.000342  -0.000227  -0.000021  -0.001598  -0.000002
     73      -0.000004   0.000124  -0.000027  -0.000009  -0.000221  -0.000004
     74       0.000005   0.000061  -0.000160   0.000010  -0.001441   0.000006
     75       0.000071  -0.002120   0.001203   0.000234   0.014850   0.000038
     76       0.000028  -0.000551   0.000290   0.000089   0.004274   0.000016
     77       0.000015  -0.000909   0.000552   0.000056   0.005424   0.000006
     78      -0.000001  -0.000085  -0.000017   0.000002   0.001074  -0.000000
     79      -0.000015  -0.000230   0.000454  -0.000007   0.011403  -0.000025
     80      -0.000036   0.000186   0.000602  -0.000049   0.014409  -0.000045
     81      -0.000018  -0.000186   0.000476  -0.000002   0.011039  -0.000029
     82       0.000025  -0.000078  -0.000564   0.000024  -0.010995   0.000036
     83      -0.000009   0.000265   0.000043  -0.000026   0.000497  -0.000010
     84       0.000180   0.000001  -0.000007  -0.000027  -0.000002  -0.000087
     85       0.000056   0.000001  -0.000003  -0.000015  -0.000001  -0.000047
     86      -0.000430   0.000001   0.000002  -0.000024   0.000001  -0.000458
     87      -0.003968  -0.000012   0.000071   0.000297   0.000017   0.001569
     88       0.002074   0.000005  -0.000037  -0.000109  -0.000008  -0.000133
     89       0.001773   0.000006  -0.000037  -0.000139  -0.000008  -0.000243
     90      -0.001877  -0.000002   0.000026   0.000016   0.000007   0.002844
     91      -0.001004  -0.000001   0.000014   0.000007   0.000003   0.001537
     92      -0.001801  -0.000012   0.000063   0.000230   0.000016   0.005533
     93      -0.000363  -0.000002   0.000008   0.000069   0.000002   0.000702
     94      -0.003985  -0.000015   0.000076   0.000299   0.000019   0.001379
     95       0.001473   0.000007  -0.000035  -0.000131  -0.000008  -0.000234


-----------
IR SPECTRUM
-----------

 Mode   freq       eps      Int      T**2         TX        TY        TZ
       cm**-1   L/(mol*cm) km/mol    a.u.
----------------------------------------------------------------------------
  6:     16.55   0.000609    3.08  0.011480  ( 0.040157 -0.097391 -0.019568)
  7:     21.33   0.000076    0.38  0.001108  ( 0.017430  0.007090  0.027455)
  8:     39.24   0.000243    1.23  0.001932  ( 0.006645  0.009433 -0.042414)
  9:     65.65   0.000090    0.45  0.000427  ( 0.017277  0.005230 -0.010040)
 10:     84.27   0.000272    1.37  0.001007  ( 0.012478  0.029154 -0.001031)
 11:    100.38   0.000038    0.19  0.000120  ( 0.009495 -0.005086 -0.001876)
 12:    113.67   0.000555    2.81  0.001525  (-0.017612  0.033690  0.008935)
 13:    129.62   0.001885    9.52  0.004537  ( 0.003779 -0.064386 -0.019430)
 14:    173.35   0.000091    0.46  0.000164  ( 0.003972  0.003009 -0.011790)
 15:    189.02   0.000178    0.90  0.000294  ( 0.014599  0.005165  0.007334)
 16:    201.21   0.000126    0.64  0.000195  ( 0.013317 -0.003333 -0.002623)
 17:    221.54   0.000230    1.16  0.000324  ( 0.013600  0.008897 -0.007766)
 18:    236.29   0.000946    4.78  0.001249  ( 0.002768  0.034690  0.006141)
 19:    252.18   0.000506    2.56  0.000626  (-0.024864  0.002758 -0.000420)
 20:    268.38   0.004141   20.93  0.004815  ( 0.059427  0.034578  0.009355)
 21:    302.55   0.000974    4.92  0.001005  ( 0.027485  0.005680 -0.014746)
 22:    314.50   0.000165    0.84  0.000164  ( 0.000097 -0.012408  0.003194)
 23:    321.24   0.000442    2.24  0.000430  (-0.009495  0.000325  0.018427)
 24:    364.04   0.000712    3.60  0.000611  (-0.009162 -0.008683 -0.021247)
 25:    450.37   0.006309   31.88  0.004371  ( 0.060419  0.023550  0.012891)
 26:    467.60   0.000892    4.51  0.000595  (-0.000841 -0.020827 -0.012677)
 27:    492.53   0.000357    1.80  0.000226  ( 0.008567  0.005919  0.010845)
 28:    519.96   0.000283    1.43  0.000170  (-0.010283 -0.007876 -0.001393)
 29:    521.09   0.000907    4.58  0.000543  ( 0.000662 -0.022954 -0.003950)
 30:    546.92   0.002714   13.71  0.001548  (-0.031330 -0.015292 -0.018250)
 31:    556.59   0.019294   97.50  0.010817  ( 0.076696  0.016595  0.068262)
 32:    602.11   0.006762   34.17  0.003505  ( 0.008219 -0.058303 -0.006169)
 33:    612.59   0.016651   84.15  0.008482  ( 0.076520  0.045165  0.024230)
 34:    643.69   0.001319    6.67  0.000640  ( 0.019074 -0.014323 -0.008406)
 35:    664.56   0.002633   13.31  0.001236  ( 0.017906  0.025152 -0.016827)
 36:    696.25   0.002090   10.56  0.000937  ( 0.012753 -0.017232 -0.021841)
 37:    703.28   0.001562    7.89  0.000693  ( 0.000654 -0.020345 -0.016695)
 38:    737.83   0.000623    3.15  0.000264  (-0.004771  0.001446 -0.015452)
 39:    759.29   0.001796    9.08  0.000738  (-0.009625  0.022944  0.010913)
 40:    777.09   0.006323   31.96  0.002539  ( 0.025570 -0.043049  0.005686)
 41:    836.97   0.008267   41.78  0.003082  ( 0.036076 -0.039250 -0.015505)
 42:    848.80   0.014834   74.96  0.005454  ( 0.029395  0.014594  0.066157)
 43:    856.71   0.017225   87.05  0.006275  ( 0.037577 -0.059498 -0.036366)
 44:    863.28   0.002430   12.28  0.000879  ( 0.027252  0.009694 -0.006478)
 45:    866.01   0.006666   33.69  0.002402  (-0.007424  0.048260 -0.004234)
 46:    895.59   0.002516   12.72  0.000877  ( 0.008303 -0.028421  0.000337)
 47:    964.21   0.013079   66.10  0.004233  (-0.036253  0.012995 -0.052440)
 48:    979.30   0.002600   13.14  0.000828  (-0.021169 -0.011609 -0.015671)
 49:    981.86   0.001378    6.97  0.000438  ( 0.004440  0.005965 -0.019565)
 50:   1010.56   0.009044   45.70  0.002793  ( 0.027287 -0.045128  0.003408)
 51:   1012.00   0.003238   16.36  0.000999  ( 0.002140  0.000077  0.031527)
 52:   1028.03   0.043806  221.38  0.013297  (-0.088504 -0.071891  0.017207)
 53:   1061.99   0.030399  153.63  0.008933  (-0.063895 -0.039864 -0.057106)
 54:   1062.33   0.002194   11.09  0.000644  ( 0.021035 -0.006225  0.012777)
 55:   1115.10   0.108249  547.04  0.030294  (-0.152363 -0.060839 -0.058119)
 56:   1161.45   0.003281   16.58  0.000882  (-0.024728 -0.014604 -0.007538)
 57:   1168.79   0.000161    0.82  0.000043  ( 0.001927 -0.004977 -0.003819)
 58:   1174.76   0.006067   30.66  0.001612  (-0.036409 -0.003856 -0.016464)
 59:   1212.39   0.006670   33.71  0.001717  ( 0.015358 -0.006494  0.037931)
 60:   1213.91   0.002071   10.46  0.000532  ( 0.009240  0.014183  0.015677)
 61:   1223.78   0.060193  304.19  0.015349  (-0.107132 -0.061764 -0.007565)
 62:   1252.49   0.133436  674.33  0.033246  ( 0.149456  0.097730 -0.036851)
 63:   1262.67   0.057468  290.42  0.014203  (-0.098864 -0.062099 -0.023929)
 64:   1295.63   0.076962  388.94  0.018537  (-0.113366 -0.073503 -0.016809)
 65:   1307.84   0.037021  187.09  0.008834  (-0.057766 -0.018317 -0.071841)
 66:   1348.17   0.020525  103.73  0.004751  ( 0.057068  0.038614 -0.001764)
 67:   1360.20   0.023465  118.58  0.005383  (-0.032431 -0.043810  0.049116)
 68:   1396.61   0.030939  156.35  0.006913  ( 0.058411  0.032441  0.049485)
 69:   1411.43   0.006910   34.92  0.001528  (-0.024967 -0.013237 -0.027004)
 70:   1452.92   0.017407   87.97  0.003739  (-0.051823 -0.013914 -0.029317)
 71:   1463.44   0.006687   33.79  0.001426  (-0.035886 -0.011184 -0.003614)
 72:   1469.93   0.002230   11.27  0.000473  (-0.008487  0.020031  0.000275)
 73:   1471.28   0.010039   50.73  0.002129  (-0.042443 -0.005965 -0.017097)
 74:   1483.49   0.002666   13.47  0.000561  ( 0.005999 -0.021602 -0.007624)
 75:   1487.11   0.021107  106.67  0.004429  (-0.007339 -0.005387 -0.065927)
 76:   1493.57   0.003935   19.88  0.000822  (-0.022715 -0.014895  0.009181)
 77:   1526.80   0.013268   67.05  0.002712  ( 0.046049  0.015841  0.018451)
 78:   1572.49   0.146623  740.97  0.029098  (-0.073082 -0.048856 -0.146184)
 79:   1581.63   0.012375   62.54  0.002442  ( 0.027372  0.005130 -0.040819)
 80:   1596.71   0.143472  725.05  0.028041  ( 0.094629  0.021467  0.136473)
 81:   1640.46   0.270253  1365.75  0.051410  (-0.197030 -0.112178 -0.002295)
 82:   1680.11   0.026934  136.11  0.005003  ( 0.059097  0.034883 -0.017131)
 83:   3030.84   0.010198   51.54  0.001050  (-0.028180 -0.015989 -0.000491)
 84:   3032.66   0.010738   54.27  0.001105  (-0.015749 -0.020687  0.020713)
 85:   3079.39   0.004009   20.26  0.000406  ( 0.010253 -0.017349  0.000363)
 86:   3100.99   0.006391   32.30  0.000643  ( 0.010534 -0.020118 -0.011290)
 87:   3112.70   0.004292   21.69  0.000430  (-0.003124 -0.001976 -0.020412)
 88:   3154.48   0.003733   18.86  0.000369  ( 0.017505  0.006153  0.004995)
 89:   3156.93   0.000261    1.32  0.000026  (-0.004312 -0.001949  0.001841)
 90:   3194.57   0.000371    1.88  0.000036  ( 0.003272  0.001605 -0.004793)
 91:   3196.60   0.000318    1.61  0.000031  (-0.004726 -0.002127 -0.002054)
 92:   3209.96   0.001126    5.69  0.000109  ( 0.009463  0.002368  0.003787)
 93:   3216.65   0.002540   12.83  0.000246  ( 0.009776  0.007629  0.009623)
 94:   3229.96   0.000337    1.70  0.000033  ( 0.000877 -0.002386  0.005108)
 95:   3236.85   0.000770    3.89  0.000074  ( 0.001280  0.000764  0.008484)

* The epsilon (eps) is given for a Dirac delta lineshape.
** The dipole moment derivative (T) already includes vibrational overlap.

The first frequency considered to be a vibration is 6
The total number of vibrations considered is 90


--------------------------
THERMOCHEMISTRY AT 298.15K
--------------------------

Temperature         ... 298.15 K
Pressure            ... 1.00 atm
Total Mass          ... 276.32 AMU

Throughout the following assumptions are being made:
  (1) The electronic state is orbitally nondegenerate
  (2) There are no thermally accessible electronically excited states
  (3) Hindered rotations indicated by low frequency modes are not
      treated as such but are treated as vibrations and this may
      cause some error
  (4) All equations used are the standard statistical mechanics
      equations for an ideal gas
  (5) All vibrations are strictly harmonic

freq.      16.55  E(vib)   ...       0.57 
freq.      21.33  E(vib)   ...       0.56 
freq.      39.24  E(vib)   ...       0.54 
freq.      65.65  E(vib)   ...       0.50 
freq.      84.27  E(vib)   ...       0.48 
freq.     100.38  E(vib)   ...       0.46 
freq.     113.67  E(vib)   ...       0.44 
freq.     129.62  E(vib)   ...       0.43 
freq.     173.35  E(vib)   ...       0.38 
freq.     189.02  E(vib)   ...       0.36 
freq.     201.21  E(vib)   ...       0.35 
freq.     221.54  E(vib)   ...       0.33 
freq.     236.29  E(vib)   ...       0.32 
freq.     252.18  E(vib)   ...       0.30 
freq.     268.38  E(vib)   ...       0.29 
freq.     302.55  E(vib)   ...       0.26 
freq.     314.50  E(vib)   ...       0.25 
freq.     321.24  E(vib)   ...       0.25 
freq.     364.04  E(vib)   ...       0.22 
freq.     450.37  E(vib)   ...       0.17 
freq.     467.60  E(vib)   ...       0.16 
freq.     492.53  E(vib)   ...       0.14 
freq.     519.96  E(vib)   ...       0.13 
freq.     521.09  E(vib)   ...       0.13 
freq.     546.92  E(vib)   ...       0.12 
freq.     556.59  E(vib)   ...       0.12 
freq.     602.11  E(vib)   ...       0.10 
freq.     612.59  E(vib)   ...       0.10 
freq.     643.69  E(vib)   ...       0.09 
freq.     664.56  E(vib)   ...       0.08 
freq.     696.25  E(vib)   ...       0.07 
freq.     703.28  E(vib)   ...       0.07 
freq.     737.83  E(vib)   ...       0.06 
freq.     759.29  E(vib)   ...       0.06 
freq.     777.09  E(vib)   ...       0.05 
freq.     836.97  E(vib)   ...       0.04 
freq.     848.80  E(vib)   ...       0.04 
freq.     856.71  E(vib)   ...       0.04 
freq.     863.28  E(vib)   ...       0.04 
freq.     866.01  E(vib)   ...       0.04 
freq.     895.59  E(vib)   ...       0.03 
freq.     964.21  E(vib)   ...       0.03 
freq.     979.30  E(vib)   ...       0.03 
freq.     981.86  E(vib)   ...       0.02 
freq.    1010.56  E(vib)   ...       0.02 
freq.    1012.00  E(vib)   ...       0.02 
freq.    1028.03  E(vib)   ...       0.02 
freq.    1061.99  E(vib)   ...       0.02 
freq.    1062.33  E(vib)   ...       0.02 
freq.    1115.10  E(vib)   ...       0.01 
freq.    1161.45  E(vib)   ...       0.01 
freq.    1168.79  E(vib)   ...       0.01 
freq.    1174.76  E(vib)   ...       0.01 
freq.    1212.39  E(vib)   ...       0.01 
freq.    1213.91  E(vib)   ...       0.01 
freq.    1223.78  E(vib)   ...       0.01 
freq.    1252.49  E(vib)   ...       0.01 
freq.    1262.67  E(vib)   ...       0.01 
freq.    1295.63  E(vib)   ...       0.01 
freq.    1307.84  E(vib)   ...       0.01 
freq.    1348.17  E(vib)   ...       0.01 
freq.    1360.20  E(vib)   ...       0.01 
freq.    1396.61  E(vib)   ...       0.00 
freq.    1411.43  E(vib)   ...       0.00 
freq.    1452.92  E(vib)   ...       0.00 
freq.    1463.44  E(vib)   ...       0.00 
freq.    1469.93  E(vib)   ...       0.00 
freq.    1471.28  E(vib)   ...       0.00 
freq.    1483.49  E(vib)   ...       0.00 
freq.    1487.11  E(vib)   ...       0.00 
freq.    1493.57  E(vib)   ...       0.00 
freq.    1526.80  E(vib)   ...       0.00 
freq.    1572.49  E(vib)   ...       0.00 
freq.    1581.63  E(vib)   ...       0.00 
freq.    1596.71  E(vib)   ...       0.00 
freq.    1640.46  E(vib)   ...       0.00 
freq.    1680.11  E(vib)   ...       0.00 
freq.    3030.84  E(vib)   ...       0.00 
freq.    3032.66  E(vib)   ...       0.00 
freq.    3079.39  E(vib)   ...       0.00 
freq.    3100.99  E(vib)   ...       0.00 
freq.    3112.70  E(vib)   ...       0.00 
freq.    3154.48  E(vib)   ...       0.00 
freq.    3156.93  E(vib)   ...       0.00 
freq.    3194.57  E(vib)   ...       0.00 
freq.    3196.60  E(vib)   ...       0.00 
freq.    3209.96  E(vib)   ...       0.00 
freq.    3216.65  E(vib)   ...       0.00 
freq.    3229.96  E(vib)   ...       0.00 
freq.    3236.85  E(vib)   ...       0.00 

------------
INNER ENERGY
------------

The inner energy is: U= E(el) + E(ZPE) + E(vib) + E(rot) + E(trans)
    E(el)   - is the total energy from the electronic structure calculation
              = E(kin-el) + E(nuc-el) + E(el-el) + E(nuc-nuc)
    E(ZPE)  - the the zero temperature vibrational energy from the frequency calculation
    E(vib)  - the the finite temperature correction to E(ZPE) due to population
              of excited vibrational states
    E(rot)  - is the rotational thermal energy
    E(trans)- is the translational thermal energy

Summary of contributions to the inner energy U:
Electronic energy                ...  -1227.75433845 Eh
Zero point energy                ...      0.24196907 Eh     151.84 kcal/mol
Thermal vibrational correction   ...      0.01517170 Eh       9.52 kcal/mol
Thermal rotational correction    ...      0.00141627 Eh       0.89 kcal/mol
Thermal translational correction ...      0.00141627 Eh       0.89 kcal/mol
-----------------------------------------------------------------------
Total thermal energy                  -1227.49436514 Eh


Summary of corrections to the electronic energy:
(perhaps to be used in another calculation)
Total thermal correction                  0.01800424 Eh      11.30 kcal/mol
Non-thermal (ZPE) correction              0.24196907 Eh     151.84 kcal/mol
-----------------------------------------------------------------------
Total correction                          0.25997331 Eh     163.14 kcal/mol


--------
ENTHALPY
--------

The enthalpy is H = U + kB*T
                kB is Boltzmann's constant
Total free energy                 ...  -1227.49436514 Eh 
Thermal Enthalpy correction       ...      0.00094421 Eh       0.59 kcal/mol
-----------------------------------------------------------------------
Total Enthalpy                    ...  -1227.49342093 Eh


Note: Only C1 symmetry has been detected, increase convergence thresholds 
      if your molecule has a higher symmetry. Symmetry factor of 1.0 is   
      used for the rotational entropy correction. 
 

Note: Rotational entropy computed according to Herzberg 
Infrared and Raman Spectra, Chapter V,1, Van Nostrand Reinhold, 1945 
Point Group:  C1, Symmetry Number:   1  
Rotational constants in cm-1:     0.035604     0.003976     0.003622 

Vibrational entropy computed according to the QRRHO of S. Grimme
Chem.Eur.J. 2012 18 9955


-------
ENTROPY
-------

The entropy contributions are T*S = T*(S(el)+S(vib)+S(rot)+S(trans))
     S(el)   - electronic entropy
     S(vib)  - vibrational entropy
     S(rot)  - rotational entropy
     S(trans)- translational entropy
The entropies will be listed as multiplied by the temperature to get
units of energy

Electronic entropy                ...      0.00000000 Eh      0.00 kcal/mol
Vibrational entropy               ...      0.02730676 Eh     17.14 kcal/mol
Rotational entropy                ...      0.01634831 Eh     10.26 kcal/mol
Translational entropy             ...      0.02031075 Eh     12.75 kcal/mol
-----------------------------------------------------------------------
Final entropy term                ...      0.06396583 Eh     40.14 kcal/mol

In case the symmetry of your molecule has not been determined correctly
or in case you have a reason to use a different symmetry number we print 
out the resulting rotational entropy values for sn=1,12 :
 --------------------------------------------------------
|  sn= 1 | S(rot)=       0.01634831 Eh     10.26 kcal/mol|
|  sn= 2 | S(rot)=       0.01569386 Eh      9.85 kcal/mol|
|  sn= 3 | S(rot)=       0.01531103 Eh      9.61 kcal/mol|
|  sn= 4 | S(rot)=       0.01503940 Eh      9.44 kcal/mol|
|  sn= 5 | S(rot)=       0.01482871 Eh      9.31 kcal/mol|
|  sn= 6 | S(rot)=       0.01465657 Eh      9.20 kcal/mol|
|  sn= 7 | S(rot)=       0.01451102 Eh      9.11 kcal/mol|
|  sn= 8 | S(rot)=       0.01438495 Eh      9.03 kcal/mol|
|  sn= 9 | S(rot)=       0.01427374 Eh      8.96 kcal/mol|
|  sn=10 | S(rot)=       0.01417426 Eh      8.89 kcal/mol|
|  sn=11 | S(rot)=       0.01408427 Eh      8.84 kcal/mol|
|  sn=12 | S(rot)=       0.01400211 Eh      8.79 kcal/mol|
 --------------------------------------------------------


-------------------
GIBBS FREE ENERGY
-------------------

The Gibbs free energy is G = H - T*S

Total enthalpy                    ...  -1227.49342093 Eh 
Total entropy correction          ...     -0.06396583 Eh    -40.14 kcal/mol
-----------------------------------------------------------------------
Final Gibbs free energy         ...  -1227.55738676 Eh

For completeness - the Gibbs free energy minus the electronic energy
G-E(el)                           ...      0.19695169 Eh    123.59 kcal/mol


Timings for individual modules:

Sum of individual times         ...     3802.804 sec (=  63.380 min)
GTO integral calculation        ...       13.481 sec (=   0.225 min)   0.4 %
SCF iterations                  ...     1744.922 sec (=  29.082 min)  45.9 %
SCF Gradient evaluation         ...      512.519 sec (=   8.542 min)  13.5 %
Geometry relaxation             ...        0.866 sec (=   0.014 min)   0.0 %
Analytical frequency calculation...     1531.015 sec (=  25.517 min)  40.3 %
                             ****ORCA TERMINATED NORMALLY****
TOTAL RUN TIME: 0 days 1 hours 3 minutes 26 seconds 727 msec
