
                                 *****************
                                 * O   R   C   A *
                                 *****************

                                            #,                                       
                                            ###                                      
                                            ####                                     
                                            #####                                    
                                            ######                                   
                                           ########,                                 
                                     ,,################,,,,,                         
                               ,,#################################,,                 
                          ,,##########################################,,             
                       ,#########################################, ''#####,          
                    ,#############################################,,   '####,        
                  ,##################################################,,,,####,       
                ,###########''''           ''''###############################       
              ,#####''   ,,,,##########,,,,          '''####'''          '####       
            ,##' ,,,,###########################,,,                        '##       
           ' ,,###''''                  '''############,,,                           
         ,,##''                                '''############,,,,        ,,,,,,###''
      ,#''                                            '''#######################'''  
     '                                                          ''''####''''         
             ,#######,   #######,   ,#######,      ##                                
            ,#'     '#,  ##    ##  ,#'     '#,    #''#        ######   ,####,        
            ##       ##  ##   ,#'  ##            #'  '#       #        #'  '#        
            ##       ##  #######   ##           ,######,      #####,   #    #        
            '#,     ,#'  ##    ##  '#,     ,#' ,#      #,         ##   #,  ,#        
             '#######'   ##     ##  '#######'  #'      '#     #####' # '####'        



                  #######################################################
                  #                        -***-                        #
                  #          Department of theory and spectroscopy      #
                  #    Directorship and core code : Frank Neese         #
                  #        Max Planck Institute fuer Kohlenforschung    #
                  #                Kaiser Wilhelm Platz 1               #
                  #                 D-45470 Muelheim/Ruhr               #
                  #                      Germany                        #
                  #                                                     #
                  #                  All rights reserved                #
                  #                        -***-                        #
                  #######################################################


                         Program Version 5.0.4 -  RELEASE  -


 With contributions from (in alphabetic order):
   Daniel Aravena         : Magnetic Suceptibility
   Michael Atanasov       : Ab Initio Ligand Field Theory (pilot matlab implementation)
   Alexander A. Auer      : GIAO ZORA, VPT2 properties, NMR spectrum
   Ute Becker             : Parallelization
   Giovanni Bistoni       : ED, misc. LED, open-shell LED, HFLD
   Martin Brehm           : Molecular dynamics
   Dmytro Bykov           : SCF Hessian
   Vijay G. Chilkuri      : MRCI spin determinant printing, contributions to CSF-ICE
   Dipayan Datta          : RHF DLPNO-CCSD density
   Achintya Kumar Dutta   : EOM-CC, STEOM-CC
   Dmitry Ganyushin       : Spin-Orbit,Spin-Spin,Magnetic field MRCI
   Miquel Garcia          : C-PCM and meta-GGA Hessian, CC/C-PCM, Gaussian charge scheme
   Yang Guo               : DLPNO-NEVPT2, F12-NEVPT2, CIM, IAO-localization
   Andreas Hansen         : Spin unrestricted coupled pair/coupled cluster methods
   Benjamin Helmich-Paris : MC-RPA, TRAH-SCF, COSX integrals
   Lee Huntington         : MR-EOM, pCC
   Robert Izsak           : Overlap fitted RIJCOSX, COSX-SCS-MP3, EOM
   Marcus Kettner         : VPT2
   Christian Kollmar      : KDIIS, OOCD, Brueckner-CCSD(T), CCSD density, CASPT2, CASPT2-K
   Simone Kossmann        : Meta GGA functionals, TD-DFT gradient, OOMP2, MP2 Hessian
   Martin Krupicka        : Initial AUTO-CI
   Lucas Lang             : DCDCAS
   Marvin Lechner         : AUTO-CI (C++ implementation), FIC-MRCC
   Dagmar Lenk            : GEPOL surface, SMD
   Dimitrios Liakos       : Extrapolation schemes; Compound Job, initial MDCI parallelization
   Dimitrios Manganas     : Further ROCIS development; embedding schemes
   Dimitrios Pantazis     : SARC Basis sets
   Anastasios Papadopoulos: AUTO-CI, single reference methods and gradients
   Taras Petrenko         : DFT Hessian,TD-DFT gradient, ASA, ECA, R-Raman, ABS, FL, XAS/XES, NRVS
   Peter Pinski           : DLPNO-MP2, DLPNO-MP2 Gradient
   Christoph Reimann      : Effective Core Potentials
   Marius Retegan         : Local ZFS, SOC
   Christoph Riplinger    : Optimizer, TS searches, QM/MM, DLPNO-CCSD(T), (RO)-DLPNO pert. Triples
   Tobias Risthaus        : Range-separated hybrids, TD-DFT gradient, RPA, STAB
   Michael Roemelt        : Original ROCIS implementation
   Masaaki Saitow         : Open-shell DLPNO-CCSD energy and density
   Barbara Sandhoefer     : DKH picture change effects
   Avijit Sen             : IP-ROCIS
   Kantharuban Sivalingam : CASSCF convergence, NEVPT2, FIC-MRCI
   Bernardo de Souza      : ESD, SOC TD-DFT
   Georgi Stoychev        : AutoAux, RI-MP2 NMR, DLPNO-MP2 response
   Willem Van den Heuvel  : Paramagnetic NMR
   Boris Wezisla          : Elementary symmetry handling
   Frank Wennmohs         : Technical directorship


 We gratefully acknowledge several colleagues who have allowed us to
 interface, adapt or use parts of their codes:
   Stefan Grimme, W. Hujo, H. Kruse, P. Pracht,  : VdW corrections, initial TS optimization,
                  C. Bannwarth, S. Ehlert          DFT functionals, gCP, sTDA/sTD-DF
   Ed Valeev, F. Pavosevic, A. Kumar             : LibInt (2-el integral package), F12 methods
   Garnet Chan, S. Sharma, J. Yang, R. Olivares  : DMRG
   Ulf Ekstrom                                   : XCFun DFT Library
   Mihaly Kallay                                 : mrcc  (arbitrary order and MRCC methods)
   Jiri Pittner, Ondrej Demel                    : Mk-CCSD
   Frank Weinhold                                : gennbo (NPA and NBO analysis)
   Christopher J. Cramer and Donald G. Truhlar   : smd solvation model
   Lars Goerigk                                  : TD-DFT with DH, B97 family of functionals
   V. Asgeirsson, H. Jonsson                     : NEB implementation
   FAccTs GmbH                                   : IRC, NEB, NEB-TS, DLPNO-Multilevel, CI-OPT
                                                   MM, QMMM, 2- and 3-layer-ONIOM, Crystal-QMMM,
                                                   LR-CPCM, SF, NACMEs, symmetry and pop. for TD-DFT,
                                                   nearIR, NL-DFT gradient (VV10), updates on ESD,
                                                   ML-optimized integration grids
   S Lehtola, MJT Oliveira, MAL Marques          : LibXC Library
   Liviu Ungur et al                             : ANISO software


 Your calculation uses the libint2 library for the computation of 2-el integrals
 For citations please refer to: http://libint.valeyev.net

 Your ORCA version has been built with support for libXC version: 5.1.0
 For citations please refer to: https://tddft.org/programs/libxc/

 This ORCA versions uses:
   CBLAS   interface :  Fast vector & matrix operations
   LAPACKE interface :  Fast linear algebra routines
   SCALAPACK package :  Parallel linear algebra routines
   Shared memory     :  Shared parallel matrices
   BLAS/LAPACK       :  OpenBLAS 0.3.15  USE64BITINT DYNAMIC_ARCH NO_AFFINITY SkylakeX SINGLE_THREADED
        Core in use  :  SkylakeX
   Copyright (c) 2011-2014, The OpenBLAS Project


XCFun DFT library Copyright 2009-2010 Ulf Ekstrom and contributors.
See http://admol.org/xcfun for more information.
This is free software; see the source code for copying conditions.
There is ABSOLUTELY NO WARRANTY; not even for MERCHANTABILITY or FITNESS FOR A PARTICULAR PURPOSE.
For details see the documentation.
Scientific users of this library should cite U. Ekstrom, L. Visscher, R. Bast, A. J. Thorvaldsen and K. Ruud;
J.Chem.Theor.Comp. 2010, DOI: 10.1021/ct100117s
XCFun Version 0.99 

================================================================================

----- Orbital basis set information -----
Your calculation utilizes the basis: def2-TZVP(-f)
   F. Weigend and R. Ahlrichs, Phys. Chem. Chem. Phys. 7, 3297 (2005).

----- AuxJ basis set information -----
Your calculation utilizes the auxiliary basis: def2/J
   F. Weigend, Phys. Chem. Chem. Phys. 8, 1057 (2006).

================================================================================
                                        WARNINGS
                       Please study these warnings very carefully!
================================================================================

INFO   : Checking CIS options ...

INFO   : Since TDDFT/CIS Mode == RPA_AOINTS, the TAMMDANCOFF/TDA keyword is ignored. 


WARNING: CIS/ROCIS methods need fully converged wavefunctions
  ===> : Setting SCFConvForced true
         You can overwrite this default with %scf ConvForced false 


INFO   : the flag for use of the SHARK integral package has been found!

================================================================================
                                       INPUT FILE
================================================================================
NAME = h.inp
|  1> ! cam-b3lyp def2-TZVP(-f) def2/J RIJCOSX tightSCF noautostart miniprint nopop
|  2> %maxcore  1000
|  3> %pal nprocs   8 end
|  4> ! CPCM(DMF)
|  5> %tddft
|  6> nroots 300
|  7> TDA false
|  8> end
|  9> * xyz   0   1
| 10> S      4.66848500    9.29092100    8.39496900
| 11> F      1.41094300    6.31119500    6.87491600
| 12> O      2.65407100    8.24011100    3.43250700
| 13> O     -2.77044700    5.39748300    4.83533100
| 14> C      0.56631700    6.50071400    5.82950700
| 15> C     -0.65053100    5.84982300    5.91598000
| 16> H     -0.85929000    5.25437100    6.79137100
| 17> C     -1.55388300    5.97874300    4.86171700
| 18> C     -1.20588300    6.74824600    3.74158500
| 19> H     -1.91417800    6.84465400    2.92976700
| 20> C      0.02299800    7.36313400    3.69044600
| 21> H      0.29751000    7.94896300    2.82430500
| 22> C      0.95779600    7.27387000    4.73869500
| 23> C      2.26152200    7.97531100    4.57212400
| 24> C      3.01784900    8.38106900    5.76054500
| 25> H      2.58874300    8.19158700    6.73306900
| 26> C      4.20991900    8.99924700    5.64041400
| 27> H      4.59626600    9.16796900    4.63995800
| 28> C      5.04818800    9.47203400    6.69941400
| 29> C      6.25224800   10.12532900    6.54875000
| 30> H      6.67148800   10.33802900    5.57383200
| 31> C      6.87618600   10.48677900    7.77212300
| 32> C      6.12462700   10.09275000    8.84842500
| 33> H      6.35392900   10.23262800    9.89361000
| 34> C     -3.16085600    4.58446000    5.95054900
| 35> H     -4.15633100    4.22022000    5.71336400
| 36> H     -3.19032200    5.17534100    6.86783700
| 37> H     -2.47672500    3.74261000    6.07153900
| 38> C      8.18720100   11.20812900    7.86815500
| 39> H      8.97959900   10.64407100    7.37080200
| 40> H      8.47542600   11.35908700    8.90809700
| 41> H      8.13013400   12.18562300    7.38339700
| 42>  *
| 43> 
| 44>                          ****END OF INPUT****
================================================================================

                       ****************************
                       * Single Point Calculation *
                       ****************************

---------------------------------
CARTESIAN COORDINATES (ANGSTROEM)
---------------------------------
  S      4.668485    9.290921    8.394969
  F      1.410943    6.311195    6.874916
  O      2.654071    8.240111    3.432507
  O     -2.770447    5.397483    4.835331
  C      0.566317    6.500714    5.829507
  C     -0.650531    5.849823    5.915980
  H     -0.859290    5.254371    6.791371
  C     -1.553883    5.978743    4.861717
  C     -1.205883    6.748246    3.741585
  H     -1.914178    6.844654    2.929767
  C      0.022998    7.363134    3.690446
  H      0.297510    7.948963    2.824305
  C      0.957796    7.273870    4.738695
  C      2.261522    7.975311    4.572124
  C      3.017849    8.381069    5.760545
  H      2.588743    8.191587    6.733069
  C      4.209919    8.999247    5.640414
  H      4.596266    9.167969    4.639958
  C      5.048188    9.472034    6.699414
  C      6.252248   10.125329    6.548750
  H      6.671488   10.338029    5.573832
  C      6.876186   10.486779    7.772123
  C      6.124627   10.092750    8.848425
  H      6.353929   10.232628    9.893610
  C     -3.160856    4.584460    5.950549
  H     -4.156331    4.220220    5.713364
  H     -3.190322    5.175341    6.867837
  H     -2.476725    3.742610    6.071539
  C      8.187201   11.208129    7.868155
  H      8.979599   10.644071    7.370802
  H      8.475426   11.359087    8.908097
  H      8.130134   12.185623    7.383397

----------------------------
CARTESIAN COORDINATES (A.U.)
----------------------------
  NO LB      ZA    FRAG     MASS         X           Y           Z
   0 S    16.0000    0    32.060    8.822158   17.557296   15.864192
   1 F     9.0000    0    18.998    2.666296   11.926430   12.991708
   2 O     8.0000    0    15.999    5.015467   15.571553    6.486498
   3 O     8.0000    0    15.999   -5.235386   10.199765    9.137451
   4 C     6.0000    0    12.011    1.070184   12.284569   11.016172
   5 C     6.0000    0    12.011   -1.229325   11.054563   11.179582
   6 H     1.0000    0     1.008   -1.623823    9.929322   12.833831
   7 C     6.0000    0    12.011   -2.936413   11.298187    9.187314
   8 C     6.0000    0    12.011   -2.278789   12.752337    7.070571
   9 H     1.0000    0     1.008   -3.617272   12.934522    5.536457
  10 C     6.0000    0    12.011    0.043460   13.914307    6.973932
  11 H     1.0000    0     1.008    0.562212   15.021363    5.337163
  12 C     6.0000    0    12.011    1.809972   13.745622    8.954836
  13 C     6.0000    0    12.011    4.273657   15.071154    8.640062
  14 C     6.0000    0    12.011    5.702908   15.837925   10.885852
  15 H     1.0000    0     1.008    4.892015   15.479856   12.723656
  16 C     6.0000    0    12.011    7.955594   17.006112   10.658838
  17 H     1.0000    0     1.008    8.685684   17.324951    8.768250
  18 C     6.0000    0    12.011    9.539693   17.899550   12.660058
  19 C     6.0000    0    12.011   11.815036   19.134099   12.375344
  20 H     1.0000    0     1.008   12.607285   19.536044   10.533016
  21 C     6.0000    0    12.011   12.994108   19.817140   14.687184
  22 C     6.0000    0    12.011   11.573868   19.072533   16.721100
  23 H     1.0000    0     1.008   12.007186   19.336865   18.696213
  24 C     6.0000    0    12.011   -5.973152    8.663374   11.244908
  25 H     1.0000    0     1.008   -7.854327    7.975060   10.796693
  26 H     1.0000    0     1.008   -6.028835    9.779977   12.978331
  27 H     1.0000    0     1.008   -4.680332    7.072508   11.473546
  28 C     6.0000    0    12.011   15.471568   21.180294   14.868658
  29 H     1.0000    0     1.008   16.968983   20.114379   13.928797
  30 H     1.0000    0     1.008   16.016234   21.465564   16.833864
  31 H     1.0000    0     1.008   15.363727   23.027490   13.952598



           ************************************************************
           *        Program running with 8 parallel MPI-processes     *
           *              working on a common directory               *
           ************************************************************
------------------------------------------------------------------------------
                   ___                                                        
                  /   \      - P O W E R E D   B Y -                         
                 /     \                                                     
                 |  |  |   _    _      __       _____    __    __             
                 |  |  |  | |  | |    /  \     |  _  \  |  |  /  |          
                  \  \/   | |  | |   /    \    | | | |  |  | /  /          
                 / \  \   | |__| |  /  /\  \   | |_| |  |  |/  /          
                |  |  |   |  __  | /  /__\  \  |    /   |      \           
                |  |  |   | |  | | |   __   |  |    \   |  |\   \          
                \     /   | |  | | |  |  |  |  | |\  \  |  | \   \       
                 \___/    |_|  |_| |__|  |__|  |_| \__\ |__|  \__/        
                                                                              
                      - O R C A' S   B I G   F R I E N D -                    
                                      &                                       
                       - I N T E G R A L  F E E D E R -                       
                                                                              
 v1 FN, 2020, v2 2021                                                         
------------------------------------------------------------------------------


Reading SHARK input file h.SHARKINP.tmp ... ok
----------------------
SHARK INTEGRAL PACKAGE
----------------------

Number of atoms                             ...     32
Number of basis functions                   ...    540
Number of shells                            ...    244
Maximum angular momentum                    ...      2
Integral batch strategy                     ... SHARK/LIBINT Hybrid
RI-J (if used) integral strategy            ... SPLIT-RIJ (Revised 2003 algorithm where possible)
Printlevel                                  ...      1
Contraction scheme used                     ... SEGMENTED contraction
Coulomb Range Separation                    ... NOT USED
Exchange Range Separation                   ... Long Range
   Mu parameter                             ...  0.330000
   Scaling (regular/separated)              ...  0.190000  0.460000
Finite Nucleus Model                        ... NOT USED
Auxiliary Coulomb fitting basis             ... AVAILABLE
   # of basis functions in Aux-J            ...   1076
   # of shells in Aux-J                     ...    352
   Maximum angular momentum in Aux-J        ...      4
Auxiliary J/K fitting basis                 ... NOT available
Auxiliary Correlation fitting basis         ... NOT available
Auxiliary 'external' fitting basis          ... NOT available
Integral threshold                          ...     2.500000e-11
Primitive cut-off                           ...     2.500000e-12
Primitive pair pre-selection threshold      ...     2.500000e-12

Calculating pre-screening integrals         ... done (  0.1 sec) Dimension = 244
Organizing shell pair data                  ... done (  0.2 sec)
Shell pair information
Total number of shell pairs                 ...     29890
Shell pairs after pre-screening             ...     18794
Total number of primitive shell pairs       ...    100152
Primitive shell pairs kept                  ...     41882
          la=0 lb=0:   5318 shell pairs
          la=1 lb=0:   6264 shell pairs
          la=1 lb=1:   1855 shell pairs
          la=2 lb=0:   3091 shell pairs
          la=2 lb=1:   1809 shell pairs
          la=2 lb=2:    457 shell pairs

Calculating one electron integrals          ... done (  0.0 sec)
Calculating RI/J V-Matrix + Cholesky decomp.... done (  0.1 sec)
Calculating Nuclear repulsion               ... done (  0.0 sec) ENN=   1397.817322945888 Eh

SHARK setup successfully completed in   0.8 seconds

Maximum memory used throughout the entire GTOINT-calculation: 30.5 MB


           ************************************************************
           *        Program running with 8 parallel MPI-processes     *
           *              working on a common directory               *
           ************************************************************

Diagonalization of the overlap matrix:
Smallest eigenvalue                        ... 9.639e-06
Time for diagonalization                   ...    0.081 sec
Threshold for overlap eigenvalues          ... 1.000e-08
Number of eigenvalues below threshold      ... 0
Time for construction of square roots      ...    0.033 sec
Total time needed                          ...    0.116 sec

Time for model grid setup =    0.315 sec

Loading Hartree-Fock densities                     ... done
Calculating cut-offs                               ... done
Initializing the effective Hamiltonian             ... done
Setting up the integral package (SHARK)            ... done
Starting the Coulomb interaction                   ... done (   0.4 sec)
Reading the grid                                   ... done
Mapping shells                                     ... done
Starting the XC term evaluation                    ... done (   0.2 sec)
  promolecular density results
     # of electrons  =    143.993313254
     EX              =   -131.777176445
     EC              =     -4.921206258
     EX+EC           =   -136.698382703
Transforming the Hamiltonian                       ... done (   0.0 sec)
Diagonalizing the Hamiltonian                      ... done (   0.1 sec)
Back transforming the eigenvectors                 ... done (   0.0 sec)
Now organizing SCF variables                       ... done
-------------------
DFT GRID GENERATION
-------------------

General Integration Accuracy     IntAcc      ... 4.388
Radial Grid Type                 RadialGrid  ... OptM3 with GC (2021)
Angular Grid (max. ang.)         AngularGrid ... 4 (Lebedev-302)
Angular grid pruning method      GridPruning ... 4 (adaptive)
Weight generation scheme         WeightScheme... Becke
Basis function cutoff            BFCut       ... 1.0000e-11
Integration weight cutoff        WCut        ... 1.0000e-14
Angular grids for H and He will be reduced by one unit
Partially contracted basis set               ... off
Rotationally invariant grid construction     ... off

Total number of grid points                  ...   157288
Total number of batches                      ...     2473
Average number of points per batch           ...       63
Average number of grid points per atom       ...     4915
Time for grid setup =    1.224 sec

--------------------
COSX GRID GENERATION
--------------------

GRIDX 1
-------
General Integration Accuracy     IntAcc      ... 3.816
Radial Grid Type                 RadialGrid  ... OptM3 with GC (2021)
Angular Grid (max. ang.)         AngularGrid ... 1 (Lebedev-50)
Angular grid pruning method      GridPruning ... 4 (adaptive)
Weight generation scheme         WeightScheme... Becke
Basis function cutoff            BFCut       ... 1.0000e-11
Integration weight cutoff        WCut        ... 1.0000e-14
Angular grids for H and He will be reduced by one unit
Partially contracted basis set               ... on
Rotationally invariant grid construction     ... off

Total number of grid points                  ...    19914
Total number of batches                      ...      325
Average number of points per batch           ...       61
Average number of grid points per atom       ...      622
UseSFitting                                  ... on

GRIDX 2
-------
General Integration Accuracy     IntAcc      ... 4.020
Radial Grid Type                 RadialGrid  ... OptM3 with GC (2021)
Angular Grid (max. ang.)         AngularGrid ... 2 (Lebedev-110)
Angular grid pruning method      GridPruning ... 4 (adaptive)
Weight generation scheme         WeightScheme... Becke
Basis function cutoff            BFCut       ... 1.0000e-11
Integration weight cutoff        WCut        ... 1.0000e-14
Angular grids for H and He will be reduced by one unit
Partially contracted basis set               ... on
Rotationally invariant grid construction     ... off

Total number of grid points                  ...    43871
Total number of batches                      ...      700
Average number of points per batch           ...       62
Average number of grid points per atom       ...     1371
UseSFitting                                  ... on

GRIDX 3
-------
General Integration Accuracy     IntAcc      ... 4.338
Radial Grid Type                 RadialGrid  ... OptM3 with GC (2021)
Angular Grid (max. ang.)         AngularGrid ... 3 (Lebedev-194)
Angular grid pruning method      GridPruning ... 4 (adaptive)
Weight generation scheme         WeightScheme... Becke
Basis function cutoff            BFCut       ... 1.0000e-11
Integration weight cutoff        WCut        ... 1.0000e-14
Angular grids for H and He will be reduced by one unit
Partially contracted basis set               ... on
Rotationally invariant grid construction     ... off

Total number of grid points                  ...    96874
Total number of batches                      ...     1529
Average number of points per batch           ...       63
Average number of grid points per atom       ...     3027
UseSFitting                                  ... on

Time for X-Grid setup             =    1.279 sec


--------------------
CPCM SOLVATION MODEL
--------------------
CPCM parameters:
  Epsilon                                         ...      38.3000
  Refrac                                          ...       1.4300
  Rsolv                                           ...       1.3000
  Surface type                                    ... GAUSSIAN VDW
  Epsilon function type                           ...         CPCM
Radii:
 Radius for S  used is    4.0818 Bohr (=   2.1600 Ang.)
 Radius for F  used is    3.3335 Bohr (=   1.7640 Ang.)
 Radius for O  used is    3.4469 Bohr (=   1.8240 Ang.)
 Radius for C  used is    3.8550 Bohr (=   2.0400 Ang.)
 Radius for H  used is    2.4944 Bohr (=   1.3200 Ang.)
Calculating surface                               ...        done! (  0.0s)
GEPOL surface points                              ...         1782
GEPOL Volume                                      ...    2147.5489
GEPOL Surface-area                                ...    1140.5738
Calculating surface distance matrix               ...        done! (  0.0s)
Performing Cholesky decomposition & store         ...        done! (  0.2s)
Overall time for CPCM initialization              ...                 0.2s
--------------
SCF ITERATIONS
--------------
ITER       Energy         Delta-E        Max-DP      RMS-DP      [F,P]     Damp
               ***  Starting incremental Fock matrix formation  ***
  0  -1227.3965402549   0.000000000000 0.24127902  0.00157982  0.2639499 0.7000
  1  -1227.5724064992  -0.175866244229 0.25104248  0.00147650  0.1181463 0.7000
                               ***Turning on DIIS***
  2  -1227.6545184311  -0.082111931929 0.36197928  0.00265663  0.0450384 0.0000
  3  -1227.7834130460  -0.128894614965 0.23849396  0.00113510  0.0606561 0.0000
  4  -1227.8082352203  -0.024822174211 0.05512933  0.00031120  0.0117483 0.0000
  5  -1227.8094124741  -0.001177253868 0.04110483  0.00021146  0.0115631 0.0000
                      *** Initiating the SOSCF procedure ***
                           *** Shutting down DIIS ***
                      *** Re-Reading the Fockian *** 
                      *** Removing any level shift *** 
ITER      Energy       Delta-E        Grad      Rot      Max-DP    RMS-DP
  6  -1227.80973173  -0.0003192601  0.001743  0.001743  0.013880  0.000087
               *** Restarting incremental Fock matrix formation ***
  7  -1227.80982015  -0.0000884118  0.001002  0.004180  0.012206  0.000107
  8  -1227.80987223  -0.0000520869  0.000496  0.004973  0.006637  0.000069
  9  -1227.80988077  -0.0000085399  0.000245  0.001089  0.002137  0.000034
 10  -1227.80988720  -0.0000064293  0.000092  0.000279  0.001892  0.000012
 11  -1227.80988730  -0.0000000995  0.000056  0.000188  0.000808  0.000006
 12  -1227.80988765  -0.0000003519  0.000011  0.000066  0.000140  0.000002
 13  -1227.80988765   0.0000000069  0.000008  0.000023  0.000097  0.000001
                  ***Gradient check signals convergence***
              ***Rediagonalizing the Fockian in SOSCF/NRSCF***

               *****************************************************
               *                     SUCCESS                       *
               *           SCF CONVERGED AFTER  14 CYCLES          *
               *****************************************************

Old exchange energy                            =    -36.764290374 Eh
New exchange energy                            =    -36.764281831 Eh
Exchange energy change after final integration =      0.000008544 Eh
Total energy after final integration           =  -1227.809879117 Eh
Final COS-X integration done in                =    30.012 sec
Total Energy       :        -1227.80987912 Eh          -33410.40536 eV
  Last Energy change         ...   -1.4057e-08  Tolerance :   1.0000e-08
  Last MAX-Density change    ...    2.6645e-15  Tolerance :   1.0000e-07
             **** THE GBW FILE WAS UPDATED (h.gbw) ****
             **** DENSITY h.scfp WAS UPDATED ****
             **** ENERGY FILE WAS UPDATED (h.en.tmp) ****
             **** THE GBW FILE WAS UPDATED (h.gbw) ****
             **** DENSITY h.scfp WAS UPDATED ****
----------------
ORBITAL ENERGIES
----------------

  NO   OCC          E(Eh)            E(eV) 
   0   2.0000     -88.960740     -2420.7448 
   1   2.0000     -24.781056      -674.3268 
   2   2.0000     -19.246373      -523.7204 
   3   2.0000     -19.186550      -522.0926 
   4   2.0000     -10.354780      -281.7679 
   5   2.0000     -10.346621      -281.5459 
   6   2.0000     -10.332694      -281.1669 
   7   2.0000     -10.295894      -280.1655 
   8   2.0000     -10.287703      -279.9426 
   9   2.0000     -10.279295      -279.7138 
  10   2.0000     -10.277085      -279.6537 
  11   2.0000     -10.267047      -279.3805 
  12   2.0000     -10.266544      -279.3669 
  13   2.0000     -10.262908      -279.2679 
  14   2.0000     -10.260276      -279.1963 
  15   2.0000     -10.258613      -279.1511 
  16   2.0000     -10.253552      -279.0133 
  17   2.0000     -10.251710      -278.9632 
  18   2.0000     -10.239941      -278.6429 
  19   2.0000      -8.038098      -218.7278 
  20   2.0000      -6.001781      -163.3168 
  21   2.0000      -5.997615      -163.2034 
  22   2.0000      -5.995160      -163.1366 
  23   2.0000      -1.321831       -35.9689 
  24   2.0000      -1.165235       -31.7077 
  25   2.0000      -1.122861       -30.5546 
  26   2.0000      -0.979314       -26.6485 
  27   2.0000      -0.961870       -26.1738 
  28   2.0000      -0.898112       -24.4389 
  29   2.0000      -0.865388       -23.5484 
  30   2.0000      -0.851006       -23.1571 
  31   2.0000      -0.847252       -23.0549 
  32   2.0000      -0.821703       -22.3597 
  33   2.0000      -0.795555       -21.6482 
  34   2.0000      -0.761334       -20.7170 
  35   2.0000      -0.731553       -19.9066 
  36   2.0000      -0.712973       -19.4010 
  37   2.0000      -0.691437       -18.8150 
  38   2.0000      -0.656536       -17.8652 
  39   2.0000      -0.632489       -17.2109 
  40   2.0000      -0.625066       -17.0089 
  41   2.0000      -0.609752       -16.5922 
  42   2.0000      -0.594111       -16.1666 
  43   2.0000      -0.586655       -15.9637 
  44   2.0000      -0.575188       -15.6517 
  45   2.0000      -0.562666       -15.3109 
  46   2.0000      -0.547725       -14.9043 
  47   2.0000      -0.546945       -14.8831 
  48   2.0000      -0.529169       -14.3994 
  49   2.0000      -0.519381       -14.1331 
  50   2.0000      -0.512476       -13.9452 
  51   2.0000      -0.500252       -13.6125 
  52   2.0000      -0.497170       -13.5287 
  53   2.0000      -0.492259       -13.3951 
  54   2.0000      -0.488395       -13.2899 
  55   2.0000      -0.478047       -13.0083 
  56   2.0000      -0.462924       -12.5968 
  57   2.0000      -0.459413       -12.5013 
  58   2.0000      -0.455897       -12.4056 
  59   2.0000      -0.448810       -12.2127 
  60   2.0000      -0.438733       -11.9385 
  61   2.0000      -0.435276       -11.8445 
  62   2.0000      -0.431952       -11.7540 
  63   2.0000      -0.415215       -11.2986 
  64   2.0000      -0.404337       -11.0026 
  65   2.0000      -0.396880       -10.7997 
  66   2.0000      -0.369314       -10.0496 
  67   2.0000      -0.336568        -9.1585 
  68   2.0000      -0.323817        -8.8115 
  69   2.0000      -0.310996        -8.4626 
  70   2.0000      -0.296299        -8.0627 
  71   2.0000      -0.276080        -7.5125 
  72   0.0000      -0.052960        -1.4411 
  73   0.0000       0.012140         0.3304 
  74   0.0000       0.024596         0.6693 
  75   0.0000       0.063805         1.7362 
  76   0.0000       0.065741         1.7889 
  77   0.0000       0.091437         2.4881 
  78   0.0000       0.092258         2.5105 
  79   0.0000       0.095937         2.6106 
  80   0.0000       0.103339         2.8120 
  81   0.0000       0.107236         2.9180 
  82   0.0000       0.117006         3.1839 
  83   0.0000       0.119405         3.2492 
  84   0.0000       0.127027         3.4566 
  85   0.0000       0.130151         3.5416 
  86   0.0000       0.140603         3.8260 
  87   0.0000       0.141479         3.8499 
  88   0.0000       0.152508         4.1500 
  89   0.0000       0.155845         4.2408 
  90   0.0000       0.162128         4.4117 
  91   0.0000       0.165680         4.5084 
  92   0.0000       0.168026         4.5722 
  93   0.0000       0.179608         4.8874 
  94   0.0000       0.179820         4.8932 
  95   0.0000       0.189120         5.1462 
  96   0.0000       0.197004         5.3607 
  97   0.0000       0.200673         5.4606 
  98   0.0000       0.208688         5.6787 
  99   0.0000       0.212952         5.7947 
 100   0.0000       0.229076         6.2335 
 101   0.0000       0.231222         6.2919 
 102   0.0000       0.232948         6.3388 
 103   0.0000       0.242525         6.5994 
 104   0.0000       0.244091         6.6420 
 105   0.0000       0.246356         6.7037 
 106   0.0000       0.254387         6.9222 
 107   0.0000       0.259050         7.0491 
 108   0.0000       0.262325         7.1382 
 109   0.0000       0.265672         7.2293 
 110   0.0000       0.273524         7.4430 
 111   0.0000       0.274909         7.4807 
 112   0.0000       0.291656         7.9364 
 113   0.0000       0.294734         8.0201 
 114   0.0000       0.297983         8.1085 
 115   0.0000       0.301846         8.2137 
 116   0.0000       0.304293         8.2802 
 117   0.0000       0.308591         8.3972 
 118   0.0000       0.318985         8.6800 
 119   0.0000       0.324806         8.8384 
 120   0.0000       0.330890         9.0040 
 121   0.0000       0.333240         9.0679 
 122   0.0000       0.338671         9.2157 
 123   0.0000       0.342924         9.3314 
 124   0.0000       0.353504         9.6193 
 125   0.0000       0.359725         9.7886 
 126   0.0000       0.366469         9.9721 
 127   0.0000       0.367434         9.9984 
 128   0.0000       0.374469        10.1898 
 129   0.0000       0.382793        10.4163 
 130   0.0000       0.388557        10.5732 
 131   0.0000       0.391514        10.6536 
 132   0.0000       0.397251        10.8098 
 133   0.0000       0.400368        10.8946 
 134   0.0000       0.406192        11.0530 
 135   0.0000       0.413677        11.2567 
 136   0.0000       0.418081        11.3766 
 137   0.0000       0.421419        11.4674 
 138   0.0000       0.427998        11.6464 
 139   0.0000       0.431190        11.7333 
 140   0.0000       0.437615        11.9081 
 141   0.0000       0.444421        12.0933 
 142   0.0000       0.446847        12.1593 
 143   0.0000       0.450431        12.2568 
 144   0.0000       0.451134        12.2760 
 145   0.0000       0.456826        12.4309 
 146   0.0000       0.462377        12.5819 
 147   0.0000       0.464611        12.6427 
 148   0.0000       0.469489        12.7755 
 149   0.0000       0.476634        12.9699 
 150   0.0000       0.492882        13.4120 
 151   0.0000       0.494032        13.4433 
 152   0.0000       0.497427        13.5357 
 153   0.0000       0.501348        13.6424 
 154   0.0000       0.507556        13.8113 
 155   0.0000       0.514151        13.9907 
 156   0.0000       0.521012        14.1774 
 157   0.0000       0.522724        14.2240 
 158   0.0000       0.527524        14.3547 
 159   0.0000       0.530395        14.4328 
 160   0.0000       0.531737        14.4693 
 161   0.0000       0.539124        14.6703 
 162   0.0000       0.543628        14.7929 
 163   0.0000       0.549725        14.9588 
 164   0.0000       0.551008        14.9937 
 165   0.0000       0.556733        15.1495 
 166   0.0000       0.568281        15.4637 
 167   0.0000       0.570159        15.5148 
 168   0.0000       0.580763        15.8034 
 169   0.0000       0.589474        16.0404 
 170   0.0000       0.603686        16.4271 
 171   0.0000       0.611928        16.6514 
 172   0.0000       0.615730        16.7549 
 173   0.0000       0.623125        16.9561 
 174   0.0000       0.634254        17.2589 
 175   0.0000       0.639115        17.3912 
 176   0.0000       0.649915        17.6851 
 177   0.0000       0.652912        17.7666 
 178   0.0000       0.665551        18.1106 
 179   0.0000       0.676624        18.4119 
 180   0.0000       0.681164        18.5354 
 181   0.0000       0.686221        18.6730 
 182   0.0000       0.691461        18.8156 
 183   0.0000       0.700197        19.0533 
 184   0.0000       0.705789        19.2055 
 185   0.0000       0.709867        19.3165 
 186   0.0000       0.720018        19.5927 
 187   0.0000       0.723542        19.6886 
 188   0.0000       0.730593        19.8805 
 189   0.0000       0.734678        19.9916 
 190   0.0000       0.739083        20.1115 
 191   0.0000       0.745085        20.2748 
 192   0.0000       0.756517        20.5859 
 193   0.0000       0.760437        20.6925 
 194   0.0000       0.762968        20.7614 
 195   0.0000       0.771256        20.9869 
 196   0.0000       0.775343        21.0982 
 197   0.0000       0.784735        21.3537 
 198   0.0000       0.791223        21.5303 
 199   0.0000       0.798839        21.7375 
 200   0.0000       0.804619        21.8948 
 201   0.0000       0.811001        22.0685 
 202   0.0000       0.827154        22.5080 
 203   0.0000       0.838815        22.8253 
 204   0.0000       0.849156        23.1067 
 205   0.0000       0.860954        23.4277 
 206   0.0000       0.868940        23.6451 
 207   0.0000       0.876993        23.8642 
 208   0.0000       0.887456        24.1489 
 209   0.0000       0.890545        24.2329 
 210   0.0000       0.897051        24.4100 
 211   0.0000       0.903207        24.5775 
 212   0.0000       0.912549        24.8317 
 213   0.0000       0.915380        24.9088 
 214   0.0000       0.916954        24.9516 
 215   0.0000       0.930142        25.3104 
 216   0.0000       0.934307        25.4238 
 217   0.0000       0.946056        25.7435 
 218   0.0000       0.950218        25.8567 
 219   0.0000       0.961761        26.1708 
 220   0.0000       0.970777        26.4162 
 221   0.0000       0.982897        26.7460 
 222   0.0000       0.991450        26.9787 
 223   0.0000       1.001931        27.2639 
 224   0.0000       1.014668        27.6105 
 225   0.0000       1.017712        27.6933 
 226   0.0000       1.023754        27.8578 
 227   0.0000       1.034621        28.1535 
 228   0.0000       1.043432        28.3932 
 229   0.0000       1.049447        28.5569 
 230   0.0000       1.062475        28.9114 
 231   0.0000       1.082898        29.4672 
 232   0.0000       1.085155        29.5286 
 233   0.0000       1.087923        29.6039 
 234   0.0000       1.100200        29.9380 
 235   0.0000       1.109708        30.1967 
 236   0.0000       1.117327        30.4040 
 237   0.0000       1.119270        30.4569 
 238   0.0000       1.133790        30.8520 
 239   0.0000       1.134271        30.8651 
 240   0.0000       1.141705        31.0674 
 241   0.0000       1.153283        31.3824 
 242   0.0000       1.165027        31.7020 
 243   0.0000       1.171921        31.8896 
 244   0.0000       1.190132        32.3851 
 245   0.0000       1.197950        32.5979 
 246   0.0000       1.209279        32.9061 
 247   0.0000       1.221722        33.2448 
 248   0.0000       1.241051        33.7707 
 249   0.0000       1.248329        33.9688 
 250   0.0000       1.254444        34.1352 
 251   0.0000       1.268582        34.5199 
 252   0.0000       1.280435        34.8424 
 253   0.0000       1.290790        35.1242 
 254   0.0000       1.298486        35.3336 
 255   0.0000       1.305527        35.5252 
 256   0.0000       1.315661        35.8009 
 257   0.0000       1.336012        36.3547 
 258   0.0000       1.345579        36.6151 
 259   0.0000       1.367520        37.2121 
 260   0.0000       1.370740        37.2997 
 261   0.0000       1.384693        37.6794 
 262   0.0000       1.392272        37.8856 
 263   0.0000       1.397244        38.0209 
 264   0.0000       1.408061        38.3153 
 265   0.0000       1.414286        38.4847 
 266   0.0000       1.433113        38.9970 
 267   0.0000       1.435814        39.0705 
 268   0.0000       1.442917        39.2638 
 269   0.0000       1.447116        39.3780 
 270   0.0000       1.455108        39.5955 
 271   0.0000       1.460144        39.7325 
 272   0.0000       1.489702        40.5369 
 273   0.0000       1.501898        40.8687 
 274   0.0000       1.511123        41.1198 
 275   0.0000       1.517787        41.3011 
 276   0.0000       1.533114        41.7181 
 277   0.0000       1.534561        41.7575 
 278   0.0000       1.538331        41.8601 
 279   0.0000       1.550136        42.1813 
 280   0.0000       1.560496        42.4632 
 281   0.0000       1.578532        42.9540 
 282   0.0000       1.584195        43.1081 
 283   0.0000       1.590826        43.2886 
 284   0.0000       1.594230        43.3812 
 285   0.0000       1.599559        43.5262 
 286   0.0000       1.611063        43.8393 
 287   0.0000       1.614778        43.9403 
 288   0.0000       1.618511        44.0419 
 289   0.0000       1.621244        44.1163 
 290   0.0000       1.623730        44.1839 
 291   0.0000       1.642035        44.6820 
 292   0.0000       1.649657        44.8895 
 293   0.0000       1.655211        45.0406 
 294   0.0000       1.655856        45.0581 
 295   0.0000       1.669384        45.4263 
 296   0.0000       1.673011        45.5249 
 297   0.0000       1.681640        45.7597 
 298   0.0000       1.690368        45.9973 
 299   0.0000       1.693679        46.0874 
 300   0.0000       1.699647        46.2497 
 301   0.0000       1.711011        46.5590 
 302   0.0000       1.719008        46.7766 
 303   0.0000       1.734065        47.1863 
 304   0.0000       1.745306        47.4922 
 305   0.0000       1.751535        47.6617 
 306   0.0000       1.757921        47.8354 
 307   0.0000       1.778068        48.3837 
 308   0.0000       1.779502        48.4227 
 309   0.0000       1.791765        48.7564 
 310   0.0000       1.794815        48.8394 
 311   0.0000       1.798504        48.9398 
 312   0.0000       1.817147        49.4471 
 313   0.0000       1.829945        49.7953 
 314   0.0000       1.846363        50.2421 
 315   0.0000       1.852133        50.3991 
 316   0.0000       1.862530        50.6820 
 317   0.0000       1.876636        51.0659 
 318   0.0000       1.896989        51.6197 
 319   0.0000       1.906459        51.8774 
 320   0.0000       1.914589        52.0986 
 321   0.0000       1.942864        52.8680 
 322   0.0000       1.953271        53.1512 
 323   0.0000       1.964203        53.4487 
 324   0.0000       1.982811        53.9550 
 325   0.0000       1.988218        54.1022 
 326   0.0000       2.012633        54.7665 
 327   0.0000       2.017653        54.9031 
 328   0.0000       2.029272        55.2193 
 329   0.0000       2.039327        55.4929 
 330   0.0000       2.051289        55.8184 
 331   0.0000       2.064150        56.1684 
 332   0.0000       2.065667        56.2097 
 333   0.0000       2.075366        56.4736 
 334   0.0000       2.089352        56.8542 
 335   0.0000       2.108120        57.3649 
 336   0.0000       2.119670        57.6792 
 337   0.0000       2.131394        57.9982 
 338   0.0000       2.158058        58.7237 
 339   0.0000       2.181305        59.3563 
 340   0.0000       2.190946        59.6187 
 341   0.0000       2.195564        59.7443 
 342   0.0000       2.204857        59.9972 
 343   0.0000       2.209595        60.1261 
 344   0.0000       2.230859        60.7048 
 345   0.0000       2.239030        60.9271 
 346   0.0000       2.243376        61.0454 
 347   0.0000       2.266295        61.6690 
 348   0.0000       2.279095        62.0173 
 349   0.0000       2.283949        62.1494 
 350   0.0000       2.298873        62.5555 
 351   0.0000       2.330167        63.4071 
 352   0.0000       2.332354        63.4666 
 353   0.0000       2.350971        63.9732 
 354   0.0000       2.353479        64.0414 
 355   0.0000       2.369063        64.4655 
 356   0.0000       2.375863        64.6505 
 357   0.0000       2.397716        65.2452 
 358   0.0000       2.406766        65.4914 
 359   0.0000       2.412070        65.6358 
 360   0.0000       2.431231        66.1572 
 361   0.0000       2.434133        66.2361 
 362   0.0000       2.459802        66.9346 
 363   0.0000       2.470130        67.2157 
 364   0.0000       2.472099        67.2692 
 365   0.0000       2.481612        67.5281 
 366   0.0000       2.486976        67.6741 
 367   0.0000       2.504409        68.1484 
 368   0.0000       2.509143        68.2772 
 369   0.0000       2.527096        68.7658 
 370   0.0000       2.533213        68.9322 
 371   0.0000       2.548233        69.3409 
 372   0.0000       2.557521        69.5937 
 373   0.0000       2.563746        69.7631 
 374   0.0000       2.571328        69.9694 
 375   0.0000       2.592006        70.5321 
 376   0.0000       2.613831        71.1260 
 377   0.0000       2.623691        71.3943 
 378   0.0000       2.631034        71.5941 
 379   0.0000       2.645076        71.9762 
 380   0.0000       2.685397        73.0734 
 381   0.0000       2.687424        73.1285 
 382   0.0000       2.714022        73.8523 
 383   0.0000       2.728929        74.2579 
 384   0.0000       2.733450        74.3810 
 385   0.0000       2.738231        74.5110 
 386   0.0000       2.747771        74.7707 
 387   0.0000       2.758347        75.0584 
 388   0.0000       2.775779        75.5328 
 389   0.0000       2.780648        75.6653 
 390   0.0000       2.789803        75.9144 
 391   0.0000       2.811885        76.5153 
 392   0.0000       2.814053        76.5743 
 393   0.0000       2.830834        77.0309 
 394   0.0000       2.842503        77.3484 
 395   0.0000       2.849283        77.5329 
 396   0.0000       2.852397        77.6177 
 397   0.0000       2.871264        78.1311 
 398   0.0000       2.878246        78.3211 
 399   0.0000       2.895321        78.7857 
 400   0.0000       2.898311        78.8671 
 401   0.0000       2.920071        79.4592 
 402   0.0000       2.927020        79.6483 
 403   0.0000       2.931513        79.7705 
 404   0.0000       2.939058        79.9758 
 405   0.0000       2.953692        80.3740 
 406   0.0000       2.970020        80.8184 
 407   0.0000       2.976698        81.0001 
 408   0.0000       2.993013        81.4440 
 409   0.0000       3.001817        81.6836 
 410   0.0000       3.011413        81.9447 
 411   0.0000       3.016001        82.0696 
 412   0.0000       3.026699        82.3607 
 413   0.0000       3.038087        82.6706 
 414   0.0000       3.041376        82.7601 
 415   0.0000       3.043884        82.8283 
 416   0.0000       3.050442        83.0067 
 417   0.0000       3.057086        83.1875 
 418   0.0000       3.072971        83.6198 
 419   0.0000       3.084738        83.9400 
 420   0.0000       3.103095        84.4395 
 421   0.0000       3.108579        84.5887 
 422   0.0000       3.114308        84.7446 
 423   0.0000       3.123351        84.9907 
 424   0.0000       3.137975        85.3886 
 425   0.0000       3.140344        85.4531 
 426   0.0000       3.149551        85.7036 
 427   0.0000       3.158938        85.9591 
 428   0.0000       3.168116        86.2088 
 429   0.0000       3.174811        86.3910 
 430   0.0000       3.185688        86.6870 
 431   0.0000       3.189284        86.7848 
 432   0.0000       3.193281        86.8936 
 433   0.0000       3.215358        87.4943 
 434   0.0000       3.226315        87.7925 
 435   0.0000       3.233640        87.9918 
 436   0.0000       3.241502        88.2057 
 437   0.0000       3.252134        88.4951 
 438   0.0000       3.267669        88.9178 
 439   0.0000       3.272540        89.0503 
 440   0.0000       3.289728        89.5180 
 441   0.0000       3.293208        89.6127 
 442   0.0000       3.307334        89.9971 
 443   0.0000       3.319093        90.3171 
 444   0.0000       3.343861        90.9911 
 445   0.0000       3.354828        91.2895 
 446   0.0000       3.355968        91.3205 
 447   0.0000       3.359246        91.4097 
 448   0.0000       3.378610        91.9367 
 449   0.0000       3.395595        92.3988 
 450   0.0000       3.405695        92.6737 
 451   0.0000       3.418591        93.0246 
 452   0.0000       3.421358        93.0999 
 453   0.0000       3.440399        93.6180 
 454   0.0000       3.457110        94.0727 
 455   0.0000       3.460423        94.1629 
 456   0.0000       3.476378        94.5971 
 457   0.0000       3.481647        94.7404 
 458   0.0000       3.497651        95.1759 
 459   0.0000       3.513936        95.6190 
 460   0.0000       3.521966        95.8376 
 461   0.0000       3.546686        96.5102 
 462   0.0000       3.559187        96.8504 
 463   0.0000       3.585024        97.5535 
 464   0.0000       3.590879        97.7128 
 465   0.0000       3.591785        97.7374 
 466   0.0000       3.603130        98.0462 
 467   0.0000       3.612227        98.2937 
 468   0.0000       3.628033        98.7238 
 469   0.0000       3.647223        99.2460 
 470   0.0000       3.665824        99.7521 
 471   0.0000       3.683714       100.2390 
 472   0.0000       3.705927       100.8434 
 473   0.0000       3.733145       101.5840 
 474   0.0000       3.769513       102.5737 
 475   0.0000       3.804204       103.5177 
 476   0.0000       3.811022       103.7032 
 477   0.0000       3.815991       103.8384 
 478   0.0000       3.831910       104.2716 
 479   0.0000       3.856693       104.9460 
 480   0.0000       3.886396       105.7542 
 481   0.0000       3.897032       106.0436 
 482   0.0000       3.916716       106.5793 
 483   0.0000       3.919416       106.6527 
 484   0.0000       3.960263       107.7642 
 485   0.0000       3.977884       108.2437 
 486   0.0000       4.005687       109.0003 
 487   0.0000       4.025662       109.5438 
 488   0.0000       4.084558       111.1465 
 489   0.0000       4.110786       111.8602 
 490   0.0000       4.127193       112.3066 
 491   0.0000       4.147122       112.8489 
 492   0.0000       4.188562       113.9766 
 493   0.0000       4.205859       114.4472 
 494   0.0000       4.221797       114.8809 
 495   0.0000       4.266353       116.0934 
 496   0.0000       4.319974       117.5525 
 497   0.0000       4.323539       117.6495 
 498   0.0000       4.334828       117.9567 
 499   0.0000       4.483306       121.9970 
 500   0.0000       4.518264       122.9482 
 501   0.0000       4.567762       124.2951 
 502   0.0000       4.767640       129.7341 
 503   0.0000       6.416508       174.6021 
 504   0.0000       6.538058       177.9096 
 505   0.0000       6.560580       178.5225 
 506   0.0000       6.625775       180.2965 
 507   0.0000       6.638085       180.6315 
 508   0.0000       6.686918       181.9603 
 509   0.0000       6.792437       184.8316 
 510   0.0000       6.871498       186.9830 
 511   0.0000       6.992246       190.2687 
 512   0.0000       7.146926       194.4777 
 513   0.0000       8.388263       228.2562 
 514   0.0000       8.504434       231.4174 
 515   0.0000       8.557453       232.8601 
 516   0.0000       8.843959       240.6564 
 517   0.0000       8.898910       242.1517 
 518   0.0000       8.905027       242.3181 
 519   0.0000       9.254766       251.8350 
 520   0.0000       9.282714       252.5955 
 521   0.0000      19.536569       531.6171 
 522   0.0000      21.673486       589.7656 
 523   0.0000      21.722027       591.0864 
 524   0.0000      22.058965       600.2550 
 525   0.0000      22.108504       601.6030 
 526   0.0000      22.139601       602.4492 
 527   0.0000      22.244120       605.2933 
 528   0.0000      22.248196       605.4042 
 529   0.0000      22.281987       606.3237 
 530   0.0000      22.389082       609.2379 
 531   0.0000      22.463252       611.2562 
 532   0.0000      22.498933       612.2271 
 533   0.0000      22.606332       615.1496 
 534   0.0000      22.664687       616.7375 
 535   0.0000      22.759437       619.3158 
 536   0.0000      23.056811       627.4077 
 537   0.0000      43.898228      1194.5315 
 538   0.0000      43.944167      1195.7816 
 539   0.0000      57.168203      1555.6259 
Total SCF time: 0 days 0 hours 3 min 29 sec 

Maximum memory used throughout the entire SCF-calculation: 100.3 MB


           ************************************************************
           *        Program running with 8 parallel MPI-processes     *
           *              working on a common directory               *
           ************************************************************
------------------------------------------------------------------------------
                          ORCA TD-DFT CALCULATION
------------------------------------------------------------------------------

Input orbitals are from        ... h.gbw
CI-vector output               ... h.cis
Tamm-Dancoff approximation     ... deactivated
RPA-Integral strategy          ... AO-integrals
Integral handling              ... AO integral Direct
Max. core memory used          ... 1000 MB
Reference state                ... RHF
Generation of triplets         ... off
Follow IRoot                   ... off
Number of operators            ... 1
Orbital ranges used for CIS calculation:
 Operator 0:  Orbitals  23... 71  to  72...539
XAS localization array:
 Operator 0:  Orbitals  -1... -1

-------------------
XC-INTEGRATION GRID
-------------------

General Integration Accuracy     IntAcc      ... 3.467
Radial Grid Type                 RadialGrid  ... OptM3 with GC (2021)
Angular Grid (max. ang.)         AngularGrid ... 1 (Lebedev-50)
Angular grid pruning method      GridPruning ... 4 (adaptive)
Weight generation scheme         WeightScheme... Becke
Basis function cutoff            BFCut       ... 1.0000e-11
Integration weight cutoff        WCut        ... 1.0000e-14
Angular grids for H and He will be reduced by one unit
Partially contracted basis set               ... off
Rotationally invariant grid construction     ... off

Total number of grid points                  ...    23064
Total number of batches                      ...      375
Average number of points per batch           ...       61
Average number of grid points per atom       ...      721

---------------------
COSX-INTEGRATION GRID
---------------------

General Integration Accuracy     IntAcc      ... 3.067
Radial Grid Type                 RadialGrid  ... OptM3 with GC (2021)
Angular Grid (max. ang.)         AngularGrid ... 1 (Lebedev-50)
Angular grid pruning method      GridPruning ... 4 (adaptive)
Weight generation scheme         WeightScheme... Becke
Basis function cutoff            BFCut       ... 1.0000e-11
Integration weight cutoff        WCut        ... 1.0000e-14
Angular grids for H and He will be reduced by one unit
Partially contracted basis set               ... on
Rotationally invariant grid construction     ... off

Total number of grid points                  ...    10665
Total number of batches                      ...      185
Average number of points per batch           ...       57
Average number of grid points per atom       ...      333

---------------
TD-DFT XC SETUP
---------------

DFT calculation                         ... on
Name of the grid file                   ... h.grid_cis.tmp
Exchange functional (TD-DFT)            ... WB88
Correlation functional (TD-DFT)         ... LYP
 LDA part of GGA corr.  LDAOpt (TD-DFT) ... VWN-5
Hybrid DFT                              ... on
   Exchange mixing (TD-DFT)             ...  0.190
   GGA exch. scaling (TD-DFT)           ...  0.350
   GGA corr. scaling (TD-DFT)           ...  0.810
Range-Separated Exchange                ... on
   Range Range separation parameter mu  .... 0.330
   Max. amount of RS exchange (TD-DFT)  ...  0.460

Building densities             ... done
Calculating rho(r) on the grid ... done
Building xc-kernel on the grid ... done
                    *** TD-DFT CALCULATION INITIALIZED ***

---------------------------------
    LR-CPCM (non-equilibrium)
---------------------------------

Setting up LR-CPCM             ... done

-------------------
RPA-DIAGONALIZATION
-------------------

Dimension of the (A+B)(A-B) eigenvalue problem ...  22932
Number of roots to be determined               ...    300
Maximum size of the expansion space            ...   9000
Convergence tolerance for the residual         ...    2.500e-07
Convergence tolerance for the energies         ...    2.500e-07
Orthogonality tolerance                        ...    1.000e-14
Constructing the preconditioner                ... o.k.
Building the initial guess                     ... o.k.
Number of trial vectors determined             ...   9000


                       ****Iteration    0****

   Memory handling for direct AO based RPA:
   Memory per vector needed      ...    14 MB
   Memory needed                 ... 13029 MB
   Memory available              ...  1000 MB
   Number of vectors per batch   ...    69
   Number of batches             ...    14
   Time for densities:            3.174
   Time for XC-Integration:      12.049
   Time for K (COSX):            29.995
   Time for RI-J (Direct):       42.516
   Time for LR-CPCM terms:       16.782
   Time for Sigma-Completion:     0.586
   Time for densities:            0.447
   Time for XC-Integration:      11.696
   Time for K (COSX):            16.994
   Time for RI-J (Direct):       42.642
   Time for LR-CPCM terms:       10.421
   Time for Sigma-Completion:     0.606
   Time for densities:            0.447
   Time for XC-Integration:      11.766
   Time for K (COSX):            17.315
   Time for RI-J (Direct):       42.844
   Time for LR-CPCM terms:       10.464
   Time for Sigma-Completion:     0.621
   Time for densities:            0.457
   Time for XC-Integration:      11.771
   Time for K (COSX):            17.213
   Time for RI-J (Direct):       42.894
   Time for LR-CPCM terms:       10.384
   Time for Sigma-Completion:     0.599
   Time for densities:            0.451
   Time for XC-Integration:      11.879
   Time for K (COSX):            17.157
   Time for RI-J (Direct):       42.795
   Time for LR-CPCM terms:       10.472
   Time for Sigma-Completion:     0.609
   Time for densities:            0.462
   Time for XC-Integration:      11.800
   Time for K (COSX):            17.396
   Time for RI-J (Direct):       43.024
   Time for LR-CPCM terms:       10.369
   Time for Sigma-Completion:     0.605
   Time for densities:            0.466
   Time for XC-Integration:      11.825
   Time for K (COSX):            17.159
   Time for RI-J (Direct):       43.076
   Time for LR-CPCM terms:       10.443
   Time for Sigma-Completion:     0.603
   Time for densities:            0.458
   Time for XC-Integration:      12.004
   Time for K (COSX):            17.314
   Time for RI-J (Direct):       42.962
   Time for LR-CPCM terms:       10.420
   Time for Sigma-Completion:     0.612
   Time for densities:            0.455
   Time for XC-Integration:      11.928
   Time for K (COSX):            17.270
   Time for RI-J (Direct):       43.202
   Time for LR-CPCM terms:       10.456
   Time for Sigma-Completion:     0.607
   Time for densities:            0.464
   Time for XC-Integration:      11.856
   Time for K (COSX):            17.292
   Time for RI-J (Direct):       43.188
   Time for LR-CPCM terms:       10.502
   Time for Sigma-Completion:     0.593
   Time for densities:            0.433
   Time for XC-Integration:      11.855
   Time for K (COSX):            17.301
   Time for RI-J (Direct):       43.367
   Time for LR-CPCM terms:       10.448
   Time for Sigma-Completion:     0.581
   Time for densities:            0.451
   Time for XC-Integration:      11.912
   Time for K (COSX):            17.260
   Time for RI-J (Direct):       43.097
   Time for LR-CPCM terms:       10.450
   Time for Sigma-Completion:     0.610
   Time for densities:            0.470
   Time for XC-Integration:      11.953
   Time for K (COSX):            17.245
   Time for RI-J (Direct):       43.189
   Time for LR-CPCM terms:       10.460
   Time for Sigma-Completion:     0.610
   Time for densities:            0.019
   Time for XC-Integration:       0.542
   Time for K (COSX):             7.843
   Time for RI-J (Direct):        1.833
   Time for LR-CPCM terms:        1.390
   Time for Sigma-Completion:     0.024
   Size of expansion space: 900
   Lowest Energy          :     0.138959930390
   Maximum Energy change  :     0.462219732939 (vector 299)
   Maximum residual norm  :     0.038444688210

                       ****Iteration    1****
   Time for densities:            0.430
   Time for XC-Integration:      12.585
   Time for K (COSX):            17.243
   Time for RI-J (Direct):       43.365
   Time for LR-CPCM terms:       10.456
   Time for Sigma-Completion:     0.610
   Time for densities:            0.425
   Time for XC-Integration:      12.565
   Time for K (COSX):            16.972
   Time for RI-J (Direct):       43.173
   Time for LR-CPCM terms:       10.319
   Time for Sigma-Completion:     0.621
   Time for densities:            0.432
   Time for XC-Integration:      12.542
   Time for K (COSX):            16.933
   Time for RI-J (Direct):       43.283
   Time for LR-CPCM terms:       10.374
   Time for Sigma-Completion:     0.636
   Time for densities:            0.437
   Time for XC-Integration:      12.463
   Time for K (COSX):            17.040
   Time for RI-J (Direct):       42.840
   Time for LR-CPCM terms:       10.383
   Time for Sigma-Completion:     0.599
   Time for densities:            0.152
   Time for XC-Integration:       4.371
   Time for K (COSX):             9.993
   Time for RI-J (Direct):       14.567
   Time for LR-CPCM terms:        4.266
   Time for Sigma-Completion:     0.205
   Size of expansion space: 1200
   Lowest Energy          :     0.131471773753
   Maximum Energy change  :     0.011147988224 (vector 9)
   Maximum residual norm  :     0.002066139588

                       ****Iteration    2****
   Time for densities:            0.412
   Time for XC-Integration:      12.806
   Time for K (COSX):            17.549
   Time for RI-J (Direct):       43.899
   Time for LR-CPCM terms:       10.536
   Time for Sigma-Completion:     0.589
   Time for densities:            0.443
   Time for XC-Integration:      12.955
   Time for K (COSX):            16.498
   Time for RI-J (Direct):       43.483
   Time for LR-CPCM terms:       10.473
   Time for Sigma-Completion:     0.637
   Time for densities:            0.427
   Time for XC-Integration:      12.736
   Time for K (COSX):            16.275
   Time for RI-J (Direct):       43.615
   Time for LR-CPCM terms:       10.483
   Time for Sigma-Completion:     0.610
   Time for densities:            0.419
   Time for XC-Integration:      12.607
   Time for K (COSX):            16.400
   Time for RI-J (Direct):       43.525
   Time for LR-CPCM terms:       10.506
   Time for Sigma-Completion:     0.591
   Time for densities:            0.145
   Time for XC-Integration:       4.329
   Time for K (COSX):             9.899
   Time for RI-J (Direct):       14.727
   Time for LR-CPCM terms:        4.225
   Time for Sigma-Completion:     0.213
   Size of expansion space: 1500
   Lowest Energy          :     0.131291703345
   Maximum Energy change  :     0.001028165489 (vector 121)
   Maximum residual norm  :     0.000208154937

                       ****Iteration    3****
   Time for densities:            0.421
   Time for XC-Integration:      12.704
   Time for K (COSX):            16.870
   Time for RI-J (Direct):       43.693
   Time for LR-CPCM terms:       10.624
   Time for Sigma-Completion:     0.608
   Time for densities:            0.427
   Time for XC-Integration:      12.765
   Time for K (COSX):            16.563
   Time for RI-J (Direct):       43.745
   Time for LR-CPCM terms:       10.507
   Time for Sigma-Completion:     0.623
   Time for densities:            0.454
   Time for XC-Integration:      12.859
   Time for K (COSX):            16.975
   Time for RI-J (Direct):       44.135
   Time for LR-CPCM terms:       10.499
   Time for Sigma-Completion:     0.608
   Time for densities:            0.442
   Time for XC-Integration:      12.843
   Time for K (COSX):            16.728
   Time for RI-J (Direct):       43.772
   Time for LR-CPCM terms:       10.525
   Time for Sigma-Completion:     0.621
   Time for densities:            0.147
   Time for XC-Integration:       4.444
   Time for K (COSX):            10.136
   Time for RI-J (Direct):       14.807
   Time for LR-CPCM terms:        4.245
   Time for Sigma-Completion:     0.215
   Size of expansion space: 1800
   Lowest Energy          :     0.131229445557
   Maximum Energy change  :     0.000095559955 (vector 145)
   Maximum residual norm  :     0.000018923486

                       ****Iteration    4****
   Time for densities:            0.408
   Time for XC-Integration:      12.656
   Time for K (COSX):            16.965
   Time for RI-J (Direct):       43.638
   Time for LR-CPCM terms:       10.411
   Time for Sigma-Completion:     0.613
   Time for densities:            0.425
   Time for XC-Integration:      12.664
   Time for K (COSX):            16.332
   Time for RI-J (Direct):       44.030
   Time for LR-CPCM terms:       10.506
   Time for Sigma-Completion:     0.595
   Time for densities:            0.424
   Time for XC-Integration:      12.679
   Time for K (COSX):            15.096
   Time for RI-J (Direct):       43.333
   Time for LR-CPCM terms:       10.474
   Time for Sigma-Completion:     0.599
   Time for densities:            0.420
   Time for XC-Integration:      12.542
   Time for K (COSX):            15.013
   Time for RI-J (Direct):       43.659
   Time for LR-CPCM terms:       10.465
   Time for Sigma-Completion:     0.609
   Time for densities:            0.150
   Time for XC-Integration:       4.392
   Time for K (COSX):             9.865
   Time for RI-J (Direct):       14.782
   Time for LR-CPCM terms:        4.264
   Time for Sigma-Completion:     0.232
   Size of expansion space: 2100
   Lowest Energy          :     0.131228962593
   Maximum Energy change  :     0.000013413684 (vector 299)
   Maximum residual norm  :     0.000004636838

                       ****Iteration    5****
   Time for densities:            0.416
   Time for XC-Integration:      12.814
   Time for K (COSX):            16.719
   Time for RI-J (Direct):       44.128
   Time for LR-CPCM terms:       10.552
   Time for Sigma-Completion:     0.607
   Time for densities:            0.412
   Time for XC-Integration:      12.755
   Time for K (COSX):            15.455
   Time for RI-J (Direct):       44.023
   Time for LR-CPCM terms:       10.565
   Time for Sigma-Completion:     0.599
   Time for densities:            0.424
   Time for XC-Integration:      12.885
   Time for K (COSX):            15.460
   Time for RI-J (Direct):       44.355
   Time for LR-CPCM terms:       10.535
   Time for Sigma-Completion:     0.597
   Time for densities:            0.420
   Time for XC-Integration:      12.650
   Time for K (COSX):            16.481
   Time for RI-J (Direct):       44.042
   Time for LR-CPCM terms:       10.523
   Time for Sigma-Completion:     0.594
   Time for densities:            0.149
   Time for XC-Integration:       4.469
   Time for K (COSX):             9.932
   Time for RI-J (Direct):       14.837
   Time for LR-CPCM terms:        4.313
   Time for Sigma-Completion:     0.217
   Size of expansion space: 2400
   Lowest Energy          :     0.131228888474
   Maximum Energy change  :     0.000002678313 (vector 299)
   Maximum residual norm  :     0.000000835795

                       ****Iteration    6****
   Time for densities:            0.421
   Time for XC-Integration:      12.668
   Time for K (COSX):            16.626
   Time for RI-J (Direct):       44.431
   Time for LR-CPCM terms:       10.469
   Time for Sigma-Completion:     0.596
   Time for densities:            0.404
   Time for XC-Integration:      12.593
   Time for K (COSX):            16.544
   Time for RI-J (Direct):       44.020
   Time for LR-CPCM terms:       10.436
   Time for Sigma-Completion:     0.620
   Time for densities:            0.432
   Time for XC-Integration:      12.668
   Time for K (COSX):            16.127
   Time for RI-J (Direct):       43.965
   Time for LR-CPCM terms:       10.506
   Time for Sigma-Completion:     0.600
   Time for densities:            0.423
   Time for XC-Integration:      12.654
   Time for K (COSX):            16.167
   Time for RI-J (Direct):       44.162
   Time for LR-CPCM terms:       10.573
   Time for Sigma-Completion:     0.610
   Time for densities:            0.141
   Time for XC-Integration:       4.400
   Time for K (COSX):             9.907
   Time for RI-J (Direct):       14.927
   Time for LR-CPCM terms:        4.205
   Time for Sigma-Completion:     0.206
   Size of expansion space: 2700
   Lowest Energy          :     0.131228887372
   Maximum Energy change  :     0.000000411676 (vector 299)
   Maximum residual norm  :     0.000000153709

      *** CONVERGENCE OF RESIDUAL NORM REACHED ***

Storing the converged CI vectors               ... h.cis1

                 *** DAVIDSON DONE ***

Total time for solving the RPA problem:  4170.161sec

--------------------------------
TD-DFT EXCITED STATES (SINGLETS)
--------------------------------

the weight of the individual excitations are printed if larger than 0.01

STATE  1:  E=   0.131229 au      3.571 eV    28801.4 cm**-1 <S**2> =   0.000000
    70a ->  73a  :     0.014049 
    71a ->  72a  :     0.946822 

STATE  2:  E=   0.139737 au      3.802 eV    30668.8 cm**-1 <S**2> =   0.000000
    67a ->  72a  :     0.737608 
    67a ->  73a  :     0.037707 
    67a ->  75a  :     0.025970 
    67a ->  85a  :     0.013514 
    68a ->  72a  :     0.103826 
    70a ->  72a  :     0.043015 

STATE  3:  E=   0.161944 au      4.407 eV    35542.7 cm**-1 <S**2> =   0.000000
    65a ->  72a  :     0.014369 
    67a ->  72a  :     0.023949 
    68a ->  72a  :     0.017389 
    69a ->  72a  :     0.043320 
    70a ->  72a  :     0.812939 
    70a ->  73a  :     0.032337 
    71a ->  73a  :     0.015016 

STATE  4:  E=   0.168319 au      4.580 eV    36941.8 cm**-1 <S**2> =   0.000000
    69a ->  72a  :     0.867881 
    69a ->  73a  :     0.050443 
    70a ->  72a  :     0.039461 

STATE  5:  E=   0.179303 au      4.879 eV    39352.4 cm**-1 <S**2> =   0.000000
    67a ->  72a  :     0.094462 
    67a ->  73a  :     0.012371 
    68a ->  72a  :     0.531782 
    68a ->  73a  :     0.121324 
    70a ->  72a  :     0.012147 
    70a ->  74a  :     0.178179 
    71a ->  74a  :     0.028081 

STATE  6:  E=   0.201428 au      5.481 eV    44208.4 cm**-1 <S**2> =   0.000000
    66a ->  72a  :     0.058257 
    70a ->  75a  :     0.011491 
    71a ->  73a  :     0.799713 
    71a ->  75a  :     0.064020 

STATE  7:  E=   0.206873 au      5.629 eV    45403.3 cm**-1 <S**2> =   0.000000
    67a ->  72a  :     0.025468 
    68a ->  72a  :     0.266600 
    68a ->  75a  :     0.018066 
    70a ->  74a  :     0.536882 
    71a ->  73a  :     0.011042 
    71a ->  74a  :     0.091040 

STATE  8:  E=   0.217092 au      5.907 eV    47646.2 cm**-1 <S**2> =   0.000000
    69a ->  76a  :     0.085536 
    70a ->  76a  :     0.039876 
    71a ->  76a  :     0.795249 
    71a ->  79a  :     0.028559 

STATE  9:  E=   0.221446 au      6.026 eV    48601.8 cm**-1 <S**2> =   0.000000
    68a ->  74a  :     0.133251 
    70a ->  72a  :     0.034673 
    70a ->  73a  :     0.652823 
    70a ->  74a  :     0.016918 
    70a ->  75a  :     0.075483 
    71a ->  75a  :     0.024021 

STATE 10:  E=   0.223108 au      6.071 eV    48966.7 cm**-1 <S**2> =   0.000000
    66a ->  72a  :     0.865018 
    66a ->  73a  :     0.019637 
    71a ->  73a  :     0.041187 
    71a ->  75a  :     0.011782 

STATE 11:  E=   0.232825 au      6.335 eV    51099.1 cm**-1 <S**2> =   0.000000
    64a ->  72a  :     0.017728 
    66a ->  76a  :     0.033857 
    69a ->  73a  :     0.011833 
    69a ->  75a  :     0.012256 
    69a ->  76a  :     0.739748 
    69a ->  79a  :     0.034819 
    71a ->  76a  :     0.087282 

STATE 12:  E=   0.235290 au      6.403 eV    51640.3 cm**-1 <S**2> =   0.000000
    60a ->  72a  :     0.021595 
    62a ->  72a  :     0.099714 
    64a ->  72a  :     0.722260 
    64a ->  73a  :     0.064403 
    69a ->  73a  :     0.012354 
    69a ->  76a  :     0.015307 

STATE 13:  E=   0.236247 au      6.429 eV    51850.2 cm**-1 <S**2> =   0.000000
    64a ->  72a  :     0.012274 
    69a ->  72a  :     0.065746 
    69a ->  73a  :     0.548351 
    69a ->  75a  :     0.161300 
    69a ->  76a  :     0.029122 
    71a ->  75a  :     0.040566 
    71a ->  78a  :     0.057781 

STATE 14:  E=   0.240522 au      6.545 eV    52788.5 cm**-1 <S**2> =   0.000000
    66a ->  74a  :     0.025520 
    67a ->  73a  :     0.036879 
    68a ->  73a  :     0.029985 
    69a ->  74a  :     0.010351 
    70a ->  74a  :     0.089702 
    71a ->  74a  :     0.770834 

STATE 15:  E=   0.241448 au      6.570 eV    52991.7 cm**-1 <S**2> =   0.000000
    67a ->  72a  :     0.029600 
    67a ->  73a  :     0.554349 
    67a ->  75a  :     0.013263 
    67a ->  85a  :     0.030008 
    68a ->  72a  :     0.011581 
    68a ->  73a  :     0.174375 
    68a ->  74a  :     0.022837 
    70a ->  74a  :     0.041438 
    71a ->  74a  :     0.051102 

STATE 16:  E=   0.246226 au      6.700 eV    54040.3 cm**-1 <S**2> =   0.000000
    67a ->  73a  :     0.012490 
    68a ->  73a  :     0.032194 
    68a ->  74a  :     0.722964 
    70a ->  73a  :     0.149890 
    71a ->  75a  :     0.018355 

STATE 17:  E=   0.251428 au      6.842 eV    55182.0 cm**-1 <S**2> =   0.000000
    67a ->  72a  :     0.015345 
    67a ->  73a  :     0.158110 
    67a ->  74a  :     0.019551 
    68a ->  72a  :     0.027913 
    68a ->  73a  :     0.318189 
    68a ->  75a  :     0.055316 
    69a ->  73a  :     0.023262 
    70a ->  74a  :     0.064113 
    71a ->  73a  :     0.011781 
    71a ->  75a  :     0.208834 

STATE 18:  E=   0.253779 au      6.906 eV    55698.1 cm**-1 <S**2> =   0.000000
    65a ->  72a  :     0.010387 
    67a ->  73a  :     0.054106 
    67a ->  74a  :     0.010929 
    68a ->  72a  :     0.010683 
    68a ->  73a  :     0.133033 
    68a ->  74a  :     0.034380 
    68a ->  75a  :     0.022141 
    69a ->  73a  :     0.048904 
    70a ->  74a  :     0.026094 
    70a ->  75a  :     0.017064 
    71a ->  73a  :     0.044670 
    71a ->  75a  :     0.485136 
    71a ->  85a  :     0.012531 

STATE 19:  E=   0.257387 au      7.004 eV    56489.8 cm**-1 <S**2> =   0.000000
    65a ->  72a  :     0.058234 
    67a ->  73a  :     0.012253 
    67a ->  74a  :     0.829374 
    68a ->  73a  :     0.022191 
    68a ->  74a  :     0.017079 

STATE 20:  E=   0.259890 au      7.072 eV    57039.3 cm**-1 <S**2> =   0.000000
    57a ->  72a  :     0.029792 
    58a ->  72a  :     0.028526 
    62a ->  72a  :     0.243257 
    64a ->  72a  :     0.052522 
    64a ->  73a  :     0.030485 
    64a ->  75a  :     0.010518 
    65a ->  72a  :     0.372647 
    65a ->  73a  :     0.050595 
    67a ->  74a  :     0.053402 
    70a ->  72a  :     0.013466 
    70a ->  75a  :     0.014141 

STATE 21:  E=   0.262924 au      7.155 eV    57705.1 cm**-1 <S**2> =   0.000000
    57a ->  72a  :     0.061794 
    60a ->  72a  :     0.012194 
    60a ->  73a  :     0.011000 
    61a ->  72a  :     0.025119 
    62a ->  72a  :     0.352425 
    64a ->  72a  :     0.032881 
    64a ->  73a  :     0.041590 
    64a ->  75a  :     0.014778 
    65a ->  72a  :     0.267618 
    65a ->  73a  :     0.034946 
    67a ->  74a  :     0.037028 
    70a ->  75a  :     0.014248 

STATE 22:  E=   0.267395 au      7.276 eV    58686.4 cm**-1 <S**2> =   0.000000
    69a ->  73a  :     0.045120 
    70a ->  78a  :     0.018804 
    71a ->  75a  :     0.010967 
    71a ->  77a  :     0.122401 
    71a ->  78a  :     0.554501 
    71a ->  79a  :     0.027305 
    71a ->  81a  :     0.085415 
    71a ->  85a  :     0.025650 

STATE 23:  E=   0.269612 au      7.337 eV    59173.0 cm**-1 <S**2> =   0.000000
    66a ->  79a  :     0.010890 
    70a ->  79a  :     0.014840 
    70a ->  81a  :     0.011997 
    71a ->  78a  :     0.099490 
    71a ->  79a  :     0.317711 
    71a ->  81a  :     0.345660 
    71a ->  83a  :     0.028841 
    71a ->  85a  :     0.010571 
    71a ->  86a  :     0.013967 
    71a ->  89a  :     0.013867 
    71a ->  92a  :     0.018923 

STATE 24:  E=   0.273238 au      7.435 eV    59968.9 cm**-1 <S**2> =   0.000000
    49a ->  72a  :     0.011279 
    60a ->  72a  :     0.325194 
    60a ->  73a  :     0.013593 
    61a ->  72a  :     0.099914 
    61a ->  73a  :     0.010308 
    62a ->  72a  :     0.011848 
    62a ->  73a  :     0.057693 
    63a ->  72a  :     0.272484 
    63a ->  73a  :     0.081247 
    63a ->  75a  :     0.011729 
    67a ->  74a  :     0.011438 

STATE 25:  E=   0.275091 au      7.486 eV    60375.4 cm**-1 <S**2> =   0.000000
    46a ->  72a  :     0.013919 
    51a ->  72a  :     0.031960 
    53a ->  72a  :     0.017627 
    56a ->  72a  :     0.152954 
    57a ->  72a  :     0.016980 
    60a ->  72a  :     0.098924 
    61a ->  72a  :     0.455263 
    61a ->  73a  :     0.034034 
    62a ->  73a  :     0.020153 
    63a ->  72a  :     0.012744 
    67a ->  75a  :     0.011875 
    70a ->  80a  :     0.016527 

STATE 26:  E=   0.278124 au      7.568 eV    61041.2 cm**-1 <S**2> =   0.000000
    60a ->  72a  :     0.017344 
    61a ->  72a  :     0.012188 
    65a ->  82a  :     0.010402 
    70a ->  76a  :     0.014787 
    70a ->  77a  :     0.053956 
    70a ->  80a  :     0.406456 
[...]
  46   67561.6    148.0    -12.98271  -0.31218   0.37845   0.16038
  47   67844.6    147.4     -6.22618   0.14595   0.31539   0.03634
  48   68158.9    146.7    -14.64603   0.12300   0.12530  -0.04076
  49   68388.6    146.2    -14.78868   0.12009  -0.14650  -0.03698
  50   68418.8    146.2    -17.75469   0.10435   0.04021  -0.38106
  51   68568.7    145.8     10.36097   0.46678  -0.50567  -0.31510
  52   69277.0    144.3     26.18739   0.25402   0.12974  -0.18524
  53   69675.7    143.5     11.27140  -0.06127   0.19722  -0.15535
  54   69904.3    143.1     -2.80230   0.01882  -0.06171  -0.01456
  55   70265.4    142.3    -14.12403  -0.00915  -0.34525  -0.12588
  56   70607.0    141.6      9.63211  -0.03696  -0.20017  -0.27130
  57   70722.4    141.4     45.71707   0.30127  -0.29406   0.14229
  58   70808.4    141.2     10.06984   0.15523  -0.20196  -0.08587
  59   71375.9    140.1     -7.68142   0.32509   0.11382   0.16361
  60   71448.0    140.0      4.06471  -0.09253  -0.16867   0.06711
  61   71547.4    139.8     -2.70821  -0.01343   0.02831   0.31954
  62   71797.2    139.3    -18.32237  -0.33823  -0.54781  -0.04378
  63   71824.9    139.2    -39.80269   0.28415  -0.17352   0.06401
  64   72208.4    138.5    -17.16331  -0.40805  -0.15258  -0.19584
  65   72551.7    137.8      7.00206   0.10942  -0.07930   0.01143
  66   72919.1    137.1      0.36922   0.03973   0.14637   0.01478
  67   73054.8    136.9      9.89806   0.00767   0.00706   0.19972
  68   73274.3    136.5     -7.22245  -0.13607   0.07331   0.10238
  69   73463.8    136.1      1.51624  -0.12997  -0.04148   0.09501
  70   73543.0    136.0      7.60844   0.00935   0.00487   0.14503
  71   73685.3    135.7      0.52217   0.21890   0.19997  -0.00660
  72   73828.0    135.4    -41.34950  -0.34367  -0.09213  -0.22538
  73   74067.1    135.0     78.04593   0.35219   0.31564  -0.02928
  74   74191.7    134.8     -0.91917  -0.22119   0.16355   0.23565
  75   74619.5    134.0     -7.77519   0.13135  -0.34142   0.04801
  76   74847.7    133.6    -27.12865   0.10311  -0.06163   0.19124
  77   74905.3    133.5     -1.08053   0.09226  -0.21977   0.00983
  78   74933.9    133.5    -30.45354  -0.22065  -0.02455  -0.16717
  79   75215.9    133.0     26.03506   0.34213   0.16167  -0.24709
  80   75612.3    132.3      1.13118  -0.18960   0.09894  -0.11948
  81   75686.1    132.1      0.97138   0.13462   0.07268   0.46215
  82   75756.4    132.0      5.95322   0.08883   0.10432   0.30774
  83   76139.7    131.3     -6.93987   0.10572  -0.00433  -0.37457
  84   76259.7    131.1     17.19391  -0.13629   0.15115  -0.11026
  85   76498.9    130.7      8.62722  -0.05440   0.33798  -0.40209
  86   76826.9    130.2      2.04656   0.03594  -0.05107   0.01608
  87   77057.4    129.8     -7.50996  -0.17577  -0.15533  -0.35553
  88   77241.7    129.5    -22.00079  -0.23773  -0.07298   0.45801
  89   77377.8    129.2      0.56480   0.06931   0.10135   0.08887
  90   77534.2    129.0      8.82695  -0.13402  -0.00236  -0.18073
  91   78004.5    128.2     -0.44859  -0.03696  -0.00876  -0.01728
  92   78349.7    127.6     -6.24064   0.06560  -0.06683  -0.14089
  93   78459.0    127.5    -14.79135   0.27068  -0.50278  -0.03076
  94   78729.6    127.0      9.73491   0.03924   0.20004   0.00767
  95   78855.0    126.8     17.98515   0.31998  -0.34330  -0.06187
  96   79006.9    126.6     16.80956  -0.13113   0.31560  -0.14183
  97   79267.2    126.2    -11.38113   0.13554  -0.08689  -0.01754
  98   79383.1    126.0      2.52020   0.05592   0.31139   0.33059
  99   79468.1    125.8      8.63236   0.47741  -0.85470   0.07585
 100   79556.5    125.7    -26.69456  -0.20455   0.03978   0.12526
 101   79634.2    125.6     19.53396   0.27224   0.11261   0.00762
 102   79787.9    125.3     -2.15088   0.00271  -0.25250   0.13263
 103   79841.2    125.2     -9.68916  -0.09274  -0.03551   0.11860
 104   80030.6    125.0     -6.83475  -0.04191   0.14803   0.50453
 105   80140.8    124.8     -1.21594   0.09070   0.10666   0.13450
 106   80291.1    124.5      1.37566  -0.09110  -0.10120   0.04459
 107   80430.7    124.3      3.57596  -0.04587  -0.01687  -0.12266
 108   80521.3    124.2     -5.91801  -0.09484   0.17062   0.09722
 109   80554.4    124.1     -4.31553  -0.02888   0.19509   0.06788
 110   80563.4    124.1      1.41581  -0.11359   0.18111   0.00764
 111   80766.6    123.8     -4.17192  -0.35024  -0.04926  -0.19710
 112   81065.7    123.4      7.43530   0.03859   0.11072  -0.18513
 113   81555.7    122.6     -1.15456  -0.52435  -0.25034   0.17228
 114   81835.5    122.2     28.28187  -0.29174   0.22796   0.00191
 115   81965.5    122.0    -109.64043  -0.61055   0.34339   0.05002
 116   82107.5    121.8      1.65174  -0.01052   0.18732   0.29378
 117   82283.8    121.5     -8.55626   0.23751  -0.02589  -0.19291
 118   82403.1    121.4     48.55317   0.10191   0.52591   0.01059
 119   82498.5    121.2      7.01576  -0.18578  -0.12879  -0.13721
 120   82725.3    120.9     39.27864  -0.34349  -0.27724   0.12936
 121   82920.8    120.6     -0.58115  -0.00851   0.05447   0.06189
 122   82933.1    120.6     40.60789  -0.03902  -0.34707   0.26969
 123   83118.2    120.3     -9.56538   0.19062   0.08409  -0.23885
 124   83190.5    120.2     10.59233  -0.21314  -0.03770  -0.14984
 125   83313.8    120.0    -16.39643  -0.14264  -0.24369   0.31968
 126   83445.2    119.8    -16.70161   0.00597  -0.06924  -0.21696
 127   83540.9    119.7    -10.78222   0.14735   0.22089   0.16313
 128   83607.9    119.6      1.26641  -0.17709  -0.09183   0.06626
 129   83789.7    119.3    -10.99318   0.12800  -0.07458   0.03673
 130   83920.5    119.2     12.17219   0.15280  -0.09640  -0.23661
 131   84052.9    119.0     -1.32595   0.16487   0.02260  -0.18756
 132   84197.6    118.8     11.78052   0.24028   0.04430   0.10566
 133   84218.3    118.7     16.33677   0.60245  -0.29715   0.61275
 134   84342.8    118.6    -28.75430   0.40887   0.27591   0.46248
 135   84533.3    118.3     -4.75556   0.23852  -0.05227   0.12745
 136   84731.2    118.0     -1.98787  -0.01894   0.02122  -0.16328
 137   84774.9    118.0      3.70104  -0.26613  -0.14263   0.22759
 138   84982.2    117.7     -5.10823   0.07395   0.02310  -0.17391
 139   85051.8    117.6      1.02350   0.06644  -0.27633   0.30000
 140   85171.1    117.4      2.15721  -0.13252   0.06819  -0.07248
 141   85360.9    117.1     -2.28078   0.10915  -0.24653   0.37929
 142   85504.7    117.0      8.95863  -0.14825  -0.12583  -0.01528
 143   85618.2    116.8    -29.59766  -0.33693   0.46007   0.10141
 144   85650.3    116.8     20.29145   0.39918  -0.85183   0.06911
 145   85678.7    116.7    146.27635   0.66010  -1.44834   0.04584
 146   85826.1    116.5     26.77572  -0.34314   0.52878   0.49950
 147   85899.9    116.4    -64.70836  -0.42723   0.45447   0.28892
 148   85996.9    116.3    -31.92587   0.22396  -0.48745  -0.01229
 149   86158.1    116.1     33.75596  -0.44241   0.54297  -0.20647
 150   86203.4    116.0    -53.68684   0.29248  -0.35093  -0.16926
 151   86218.9    116.0      8.63109   0.09773  -0.31838  -0.04467
 152   86275.3    115.9     12.77096  -0.41954   0.86838  -0.20537
 153   86390.0    115.8      3.67458   0.18283   0.04968   0.38024
 154   86494.2    115.6     -1.63067   0.41690   0.03456   0.12323
 155   86553.3    115.5    -15.50944   0.11936  -0.40174  -0.73868
 156   86833.4    115.2      4.97790  -0.13149   0.16856  -0.16202
 157   87134.2    114.8    -22.88413   0.33602  -0.68952  -0.18218
 158   87307.4    114.5     -1.23758  -0.46841   0.59737  -0.19372
 159   87635.0    114.1      4.89995   0.13946  -0.03966  -0.01107
 160   87694.6    114.0     -2.92413   0.00787   0.31959  -0.00889
 161   87887.4    113.8    -12.48897   0.22678  -0.23010  -0.01568
 162   87971.6    113.7      0.61042   0.11483   0.13683   0.23813
 163   88032.3    113.6    -13.30146  -0.13203  -0.26378  -0.04136
 164   88110.3    113.5    -52.88483  -0.16333  -0.04934   0.35514
 165   88400.5    113.1     17.62570  -0.34572   0.12747   0.07836
 166   88431.6    113.1     78.04991   0.11969   0.33485  -0.40976
 167   88476.6    113.0      7.47376   0.00881   0.03797  -0.09760
 168   88677.6    112.8      1.08859  -0.11474   0.10110   0.10681
 169   88882.8    112.5     11.34260  -0.25979  -0.21442   0.13562
 170   88913.4    112.5     -0.40776  -0.02114   0.04788  -0.21264
 171   88930.8    112.4    -11.12513   0.22396   0.01221  -0.32644
 172   89070.5    112.3    -17.03230  -0.23415   0.00545   0.23722
 173   89169.8    112.1    -53.55656  -0.13538  -0.48811   0.77603
 174   89264.4    112.0    -34.83293  -0.27065   0.13337   0.32662
 175   89338.5    111.9     -3.11285   0.22771   0.14897  -0.02909
 176   89528.8    111.7     -4.45315   0.23465  -0.12032  -0.03364
 177   89705.9    111.5    -19.61795   0.44521  -0.64934  -0.11285
 178   89748.0    111.4     14.51172  -0.03884   0.16752  -0.11767
 179   89831.7    111.3     -3.62283   0.53239  -0.92071   0.00702
 180   89966.0    111.2     45.46316   0.16969   0.28895  -0.08581
 181   90080.1    111.0     -3.02440   0.04226  -0.21093  -0.04812
 182   90270.8    110.8      0.73117  -0.03891  -0.17376  -0.04888
 183   90280.8    110.8     16.55810  -0.10277   0.23223   0.03967
 184   90316.1    110.7    -41.05202  -0.34465   0.30013  -0.07855
 185   90352.0    110.7      5.35916   0.09891  -0.23913  -0.02027
 186   90480.9    110.5     -6.94126  -0.07197  -0.08758   0.21014
 187   90595.4    110.4    -32.31448  -0.38154   0.42360   0.31514
 188   90826.5    110.1     36.60333   0.19675  -0.55273   0.30770
 189   90931.4    110.0      4.18506   0.36220   0.08525  -0.46212
 190   91014.3    109.9     -0.13117   0.07524   0.13249   0.00690
 191   91282.5    109.6    -11.95105  -0.06219  -0.08503  -0.05646
 192   91371.8    109.4     33.60186   0.03840  -0.13769   0.15768
 193   91395.5    109.4     25.96977  -0.09387  -0.14832  -0.05660
 194   91502.1    109.3     -7.00070   0.00658   0.02203   0.13404
 195   91545.6    109.2     31.44130   0.12077   0.02103  -0.17439
 196   91730.1    109.0     10.45765  -0.09338  -0.08190  -0.35300
 197   91777.8    109.0    -17.12388   0.14644  -0.12343  -0.06983
 198   91943.4    108.8    -15.53722  -0.13896   0.41793  -0.05158
 199   91980.7    108.7      6.29056   0.10217  -0.42509   0.32181
 200   92089.8    108.6      7.96341   0.03127  -0.30034  -0.13212
 201   92153.2    108.5    -26.60437   0.06127  -0.23975  -0.22565
 202   92224.5    108.4      6.18878   0.12718   0.05488   0.01435
 203   92277.1    108.4      1.72490  -0.13210   0.08275   0.19617
 204   92433.2    108.2      0.75726  -0.10038   0.03837  -0.09811
 205   92607.3    108.0     19.26001  -0.51806   0.00207   0.32775
 206   92807.9    107.7     11.58542  -0.31628   0.12288  -0.17647
 207   92877.2    107.7    -11.12359   0.12917  -0.25601   0.02735
 208   92982.2    107.5    -71.23665   0.45260   0.06001  -0.09842
 209   93106.6    107.4     20.34804  -0.19674  -0.39729  -0.03612
 210   93204.1    107.3     43.01073   0.11824   0.29777  -0.18035
 211   93366.6    107.1      1.47935   0.29340  -0.11610  -0.55342
 212   93415.6    107.0      7.11664   0.13498   0.00638   0.04948
 213   93585.3    106.9     78.65381  -0.22892   0.03567   0.72651
 214   93592.6    106.8    -21.74293   0.17492  -0.26133  -0.08178
 215   93629.6    106.8    -23.06471   0.43756  -0.57020  -0.29333
 216   93676.3    106.8      7.78928  -0.05102   0.23587   0.04701
 217   93728.9    106.7     -5.36219   0.12660  -0.29462   0.17392
 218   93853.1    106.5     -1.17873   0.06711   0.08784   0.13668
 219   93907.7    106.5     14.93907   0.21461   0.06717   0.18425
 220   94074.8    106.3     -6.43992  -0.09606   0.21127   0.10612
 221   94299.5    106.0    -30.50267   0.14610  -0.32199  -0.29683
 222   94396.0    105.9     -1.70671  -0.06082   0.10948   0.17723
 223   94440.7    105.9     -8.34985   0.11163   0.08664  -0.08515
 224   94524.9    105.8     35.44000   0.20879  -0.21254  -0.28645
 225   94621.4    105.7    -22.01735   0.21731  -0.36849  -0.05121
 226   94692.6    105.6      8.40111  -0.18985   0.23981  -0.04687
 227   94746.4    105.5     25.67191  -0.12565  -0.15190   1.21570
 228   94934.3    105.3    -14.17840  -0.03633   0.20293  -0.07467
 229   95016.4    105.2      2.52159  -0.19276  -0.22172   0.42728
 230   95062.9    105.2     16.23700   0.09891   0.07053   0.23406
 231   95095.3    105.2     37.29796   0.43784  -0.18731  -0.10121
 232   95171.6    105.1    -75.36840   0.37481  -0.38863   0.20543
 233   95207.7    105.0    -35.74084  -0.05660  -0.26704   0.30601
 234   95247.3    105.0     29.05211  -0.09651  -0.16851   0.16909
 235   95360.0    104.9     17.83616   0.26508  -0.19842  -0.55997
 236   95445.9    104.8    -80.05283  -0.23993  -0.17326   1.34265
 237   95542.8    104.7    -11.66147   0.06407  -0.14567   0.18441
 238   95830.8    104.4     24.11095   0.13976  -0.55829   0.12064
 239   95948.5    104.2    -37.48258  -0.19318   0.30079   0.45469
 240   96056.6    104.1     41.79383   0.00034   0.07003   0.45090
 241   96117.3    104.0    -21.29316   0.15559  -0.14466   0.10588
 242   96128.6    104.0    -40.54167  -0.09982   0.43824  -0.13902
 243   96247.4    103.9     56.86222  -0.30365   0.32968   0.39484
 244   96309.9    103.8      4.93735  -0.16151   0.03565   0.19731
 245   96367.8    103.8      1.17942  -0.18331   0.37157   0.19933
 246   96425.4    103.7    -12.42196   0.10248  -0.30378   0.18862
 247   96460.7    103.7     35.29209   0.09675  -0.21473   0.17871
 248   96491.9    103.6    -20.55934   0.12042  -0.32271  -0.02719
 249   96571.3    103.6    -122.06415  -0.57437   0.88163   0.40793
 250   96671.7    103.4     58.85300  -0.06952   0.33942  -0.41819
 251   96711.5    103.4     15.78227   0.08089   0.49038  -0.19035
 252   96760.1    103.3     -8.58393  -0.27704   0.42593   0.02903
 253   96902.6    103.2     24.76672  -0.05576   0.34783  -0.09216
 254   97007.4    103.1    -20.92324  -0.19432   0.29197   0.03758
 255   97029.9    103.1     43.48893  -0.34186   0.50775   0.24233
 256   97143.3    102.9     23.98295  -0.20690   0.20034   0.20713
 257   97204.8    102.9    -61.24962  -0.35760   0.40538   0.31458
 258   97303.3    102.8     10.49276   0.42641  -0.60513  -0.21976
 259   97451.3    102.6    -107.13219   0.32515  -0.56725   0.29714
 260   97519.9    102.5    -14.95274  -0.02257  -0.28746  -0.26496
 261   97537.0    102.5    -18.73497  -0.32248   0.36363   0.01876
 262   97652.2    102.4     42.25865  -0.14664  -0.02868   0.29951
 263   97823.2    102.2     39.42856  -0.05839   0.25131  -0.37363
 264   97915.8    102.1     25.10392  -0.88054   1.18273   0.09149
 265   98093.0    101.9     28.83822  -0.08732  -0.38833   0.25247
 266   98142.6    101.9    -12.72775   0.11237  -0.21088  -0.06750
 267   98166.5    101.9     -4.74125  -0.11977  -0.05493  -0.42454
 268   98294.1    101.7     23.70872   0.13161  -0.60049   0.29604
 269   98350.5    101.7     16.31258  -0.06650  -0.03329  -0.28749
 270   98467.3    101.6      9.04319   0.19628  -0.00659  -0.48509
 271   98534.1    101.5     -0.85567  -0.09700   0.26123  -0.42995
 272   98545.7    101.5    -54.40536   0.20006   0.22239   0.20008
 273   98645.1    101.4     22.08555  -0.10663  -0.31655  -0.41025
 274   98708.3    101.3    -36.89520  -0.65028   0.39990  -0.16877
 275   98895.2    101.1      4.97991  -0.42719  -0.41341   0.55041
 276   98927.3    101.1     56.40665  -0.35044   0.54342  -0.87780
 277   98991.7    101.0    -24.34678  -0.11161   0.65284   0.03608
 278   99083.7    100.9     23.32694  -0.38927   0.46182  -0.05010
 279   99098.6    100.9    -110.22722   0.02026   0.35759  -0.65655
 280   99232.8    100.8      9.40447   0.09560   0.04113  -0.62856
 281   99291.3    100.7      7.38724  -0.05199   0.34719  -0.16396
 282   99311.2    100.7      5.53724  -0.18504   0.12062  -0.07320
 283   99353.6    100.7    -28.41673   0.32870  -0.16312  -0.10067
 284   99568.6    100.4    -27.53280   0.36327   0.34229  -0.50625
 285   99579.7    100.4     58.46530   0.05973  -0.48957   0.24906
 286   99631.3    100.4     54.40389   0.30405  -0.27791  -0.19180
 287   99758.3    100.2     47.11958   0.36575   0.12041  -0.75411
 288   99780.4    100.2     -4.73806   0.05997   0.29410  -0.24662
 289   99887.8    100.1    -27.77139  -0.35516   0.18265   0.56644
 290   99983.5    100.0    -40.27254  -0.23749   0.11436   0.04014
 291  100036.2    100.0    -18.55262  -0.13850   0.52597  -0.01435
 292  100096.7     99.9    -18.43166   0.30742   0.13495  -0.22394
 293  100189.3     99.8    -10.78371   0.06302  -0.14422   0.04675
 294  100242.0     99.8     -8.82709  -0.16793   0.15636   0.03859
 295  100354.5     99.6     17.07939   0.18070  -0.02301  -0.32827
 296  100438.0     99.6     -4.06008  -0.22278   0.50511  -0.19746
 297  100531.8     99.5     16.09464   0.14847  -0.28889   0.23844
 298  100613.1     99.4      6.16239  -0.23068   0.15092   0.14336
 299  100677.2     99.3     22.83335  -0.27998   0.06444   0.69627
 300  100733.6     99.3     -3.92279   0.03592   0.03858  -0.03399

Total run time:     4171.765 sec

           *** ORCA-CIS/TD-DFT FINISHED WITHOUT ERROR ***

Maximum memory used throughout the entire CIS-calculation: 1446.0 MB

-----------------------
CIS/TD-DFT TOTAL ENERGY
-----------------------

    E(SCF)  =  -1227.809879117 Eh
    DE(CIS) =      0.131228887 Eh (Root  1)
    ----------------------------- ---------
    E(tot)  =  -1227.678650229 Eh


-------------------------   --------------------
FINAL SINGLE POINT ENERGY     -1227.678650229387
-------------------------   --------------------


                            ***************************************
                            *     ORCA property calculations      *
                            ***************************************

                                    ---------------------
                                    Active property flags
                                    ---------------------
   (+) Dipole Moment


------------------------------------------------------------------------------
                       ORCA ELECTRIC PROPERTIES CALCULATION
------------------------------------------------------------------------------

Dipole Moment Calculation                       ... on
Quadrupole Moment Calculation                   ... off
Polarizability Calculation                      ... off
GBWName                                         ... h.gbw
Electron density                                ... h.scfp
The origin for moment calculation is the CENTER OF MASS  = ( 4.460457, 15.017344 11.466023)

-------------
DIPOLE MOMENT
-------------
                                X             Y             Z
Electronic contribution:     -3.68265      -3.53214       0.05761
Nuclear contribution   :      3.37892       3.31606       1.77557
                        -----------------------------------------
Total Dipole Moment    :     -0.30373      -0.21608       1.83318
                        -----------------------------------------
Magnitude (a.u.)       :      1.87069
Magnitude (Debye)      :      4.75492



--------------------
Rotational spectrum 
--------------------
 
Rotational constants in cm-1:     0.035604     0.003976     0.003622 
Rotational constants in MHz :  1067.394451   119.186470   108.598124 

 Dipole components along the rotational axes: 
x,y,z [a.u.] :     0.176456     1.844044     0.260485 
x,y,z [Debye]:     0.448516     4.687188     0.662100 

 

Timings for individual modules:

Sum of individual times         ...     4383.852 sec (=  73.064 min)
GTO integral calculation        ...        1.387 sec (=   0.023 min)   0.0 %
SCF iterations                  ...      210.112 sec (=   3.502 min)   4.8 %
CIS module                      ...     4172.353 sec (=  69.539 min)  95.2 %
                             ****ORCA TERMINATED NORMALLY****
TOTAL RUN TIME: 0 days 1 hours 13 minutes 5 seconds 313 msec
