
                                 *****************
                                 * O   R   C   A *
                                 *****************

                                            #,                                       
                                            ###                                      
                                            ####                                     
                                            #####                                    
                                            ######                                   
                                           ########,                                 
                                     ,,################,,,,,                         
                               ,,#################################,,                 
                          ,,##########################################,,             
                       ,#########################################, ''#####,          
                    ,#############################################,,   '####,        
                  ,##################################################,,,,####,       
                ,###########''''           ''''###############################       
              ,#####''   ,,,,##########,,,,          '''####'''          '####       
            ,##' ,,,,###########################,,,                        '##       
           ' ,,###''''                  '''############,,,                           
         ,,##''                                '''############,,,,        ,,,,,,###''
      ,#''                                            '''#######################'''  
     '                                                          ''''####''''         
             ,#######,   #######,   ,#######,      ##                                
            ,#'     '#,  ##    ##  ,#'     '#,    #''#        ######   ,####,        
            ##       ##  ##   ,#'  ##            #'  '#       #        #'  '#        
            ##       ##  #######   ##           ,######,      #####,   #    #        
            '#,     ,#'  ##    ##  '#,     ,#' ,#      #,         ##   #,  ,#        
             '#######'   ##     ##  '#######'  #'      '#     #####' # '####'        



                  #######################################################
                  #                        -***-                        #
                  #          Department of theory and spectroscopy      #
                  #    Directorship and core code : Frank Neese         #
                  #        Max Planck Institute fuer Kohlenforschung    #
                  #                Kaiser Wilhelm Platz 1               #
                  #                 D-45470 Muelheim/Ruhr               #
                  #                      Germany                        #
                  #                                                     #
                  #                  All rights reserved                #
                  #                        -***-                        #
                  #######################################################


                         Program Version 5.0.4 -  RELEASE  -


 With contributions from (in alphabetic order):
   Daniel Aravena         : Magnetic Suceptibility
   Michael Atanasov       : Ab Initio Ligand Field Theory (pilot matlab implementation)
   Alexander A. Auer      : GIAO ZORA, VPT2 properties, NMR spectrum
   Ute Becker             : Parallelization
   Giovanni Bistoni       : ED, misc. LED, open-shell LED, HFLD
   Martin Brehm           : Molecular dynamics
   Dmytro Bykov           : SCF Hessian
   Vijay G. Chilkuri      : MRCI spin determinant printing, contributions to CSF-ICE
   Dipayan Datta          : RHF DLPNO-CCSD density
   Achintya Kumar Dutta   : EOM-CC, STEOM-CC
   Dmitry Ganyushin       : Spin-Orbit,Spin-Spin,Magnetic field MRCI
   Miquel Garcia          : C-PCM and meta-GGA Hessian, CC/C-PCM, Gaussian charge scheme
   Yang Guo               : DLPNO-NEVPT2, F12-NEVPT2, CIM, IAO-localization
   Andreas Hansen         : Spin unrestricted coupled pair/coupled cluster methods
   Benjamin Helmich-Paris : MC-RPA, TRAH-SCF, COSX integrals
   Lee Huntington         : MR-EOM, pCC
   Robert Izsak           : Overlap fitted RIJCOSX, COSX-SCS-MP3, EOM
   Marcus Kettner         : VPT2
   Christian Kollmar      : KDIIS, OOCD, Brueckner-CCSD(T), CCSD density, CASPT2, CASPT2-K
   Simone Kossmann        : Meta GGA functionals, TD-DFT gradient, OOMP2, MP2 Hessian
   Martin Krupicka        : Initial AUTO-CI
   Lucas Lang             : DCDCAS
   Marvin Lechner         : AUTO-CI (C++ implementation), FIC-MRCC
   Dagmar Lenk            : GEPOL surface, SMD
   Dimitrios Liakos       : Extrapolation schemes; Compound Job, initial MDCI parallelization
   Dimitrios Manganas     : Further ROCIS development; embedding schemes
   Dimitrios Pantazis     : SARC Basis sets
   Anastasios Papadopoulos: AUTO-CI, single reference methods and gradients
   Taras Petrenko         : DFT Hessian,TD-DFT gradient, ASA, ECA, R-Raman, ABS, FL, XAS/XES, NRVS
   Peter Pinski           : DLPNO-MP2, DLPNO-MP2 Gradient
   Christoph Reimann      : Effective Core Potentials
   Marius Retegan         : Local ZFS, SOC
   Christoph Riplinger    : Optimizer, TS searches, QM/MM, DLPNO-CCSD(T), (RO)-DLPNO pert. Triples
   Tobias Risthaus        : Range-separated hybrids, TD-DFT gradient, RPA, STAB
   Michael Roemelt        : Original ROCIS implementation
   Masaaki Saitow         : Open-shell DLPNO-CCSD energy and density
   Barbara Sandhoefer     : DKH picture change effects
   Avijit Sen             : IP-ROCIS
   Kantharuban Sivalingam : CASSCF convergence, NEVPT2, FIC-MRCI
   Bernardo de Souza      : ESD, SOC TD-DFT
   Georgi Stoychev        : AutoAux, RI-MP2 NMR, DLPNO-MP2 response
   Willem Van den Heuvel  : Paramagnetic NMR
   Boris Wezisla          : Elementary symmetry handling
   Frank Wennmohs         : Technical directorship


 We gratefully acknowledge several colleagues who have allowed us to
 interface, adapt or use parts of their codes:
   Stefan Grimme, W. Hujo, H. Kruse, P. Pracht,  : VdW corrections, initial TS optimization,
                  C. Bannwarth, S. Ehlert          DFT functionals, gCP, sTDA/sTD-DF
   Ed Valeev, F. Pavosevic, A. Kumar             : LibInt (2-el integral package), F12 methods
   Garnet Chan, S. Sharma, J. Yang, R. Olivares  : DMRG
   Ulf Ekstrom                                   : XCFun DFT Library
   Mihaly Kallay                                 : mrcc  (arbitrary order and MRCC methods)
   Jiri Pittner, Ondrej Demel                    : Mk-CCSD
   Frank Weinhold                                : gennbo (NPA and NBO analysis)
   Christopher J. Cramer and Donald G. Truhlar   : smd solvation model
   Lars Goerigk                                  : TD-DFT with DH, B97 family of functionals
   V. Asgeirsson, H. Jonsson                     : NEB implementation
   FAccTs GmbH                                   : IRC, NEB, NEB-TS, DLPNO-Multilevel, CI-OPT
                                                   MM, QMMM, 2- and 3-layer-ONIOM, Crystal-QMMM,
                                                   LR-CPCM, SF, NACMEs, symmetry and pop. for TD-DFT,
                                                   nearIR, NL-DFT gradient (VV10), updates on ESD,
                                                   ML-optimized integration grids
   S Lehtola, MJT Oliveira, MAL Marques          : LibXC Library
   Liviu Ungur et al                             : ANISO software


 Your calculation uses the libint2 library for the computation of 2-el integrals
 For citations please refer to: http://libint.valeyev.net

 Your ORCA version has been built with support for libXC version: 5.1.0
 For citations please refer to: https://tddft.org/programs/libxc/

 This ORCA versions uses:
   CBLAS   interface :  Fast vector & matrix operations
   LAPACKE interface :  Fast linear algebra routines
   SCALAPACK package :  Parallel linear algebra routines
   Shared memory     :  Shared parallel matrices
   BLAS/LAPACK       :  OpenBLAS 0.3.15  USE64BITINT DYNAMIC_ARCH NO_AFFINITY SkylakeX SINGLE_THREADED
        Core in use  :  SkylakeX
   Copyright (c) 2011-2014, The OpenBLAS Project


Your calculation utilizes the atom-pairwise dispersion correction
with the Becke-Johnson damping scheme (D3BJ)
Cite in your paper:
S.Grimme, S.Ehrlich, L.Goerigk, J Comput Chem, (2011), 32, 1456–1465 
S.Grimme, J.Antony, S.Ehrlich and H.Krieg, J.Chem.Phys., 132, (2010), 154104 
   

XCFun DFT library Copyright 2009-2010 Ulf Ekstrom and contributors.
See http://admol.org/xcfun for more information.
This is free software; see the source code for copying conditions.
There is ABSOLUTELY NO WARRANTY; not even for MERCHANTABILITY or FITNESS FOR A PARTICULAR PURPOSE.
For details see the documentation.
Scientific users of this library should cite U. Ekstrom, L. Visscher, R. Bast, A. J. Thorvaldsen and K. Ruud;
J.Chem.Theor.Comp. 2010, DOI: 10.1021/ct100117s
XCFun Version 0.99 

================================================================================

----- Orbital basis set information -----
Your calculation utilizes the basis: def2-TZVP(-f)
   F. Weigend and R. Ahlrichs, Phys. Chem. Chem. Phys. 7, 3297 (2005).

----- AuxJ basis set information -----
Your calculation utilizes the auxiliary basis: def2/J
   F. Weigend, Phys. Chem. Chem. Phys. 8, 1057 (2006).

================================================================================
                                        WARNINGS
                       Please study these warnings very carefully!
================================================================================

INFO   : Checking CIS options ...

WARNING: CIS/ROCIS methods need fully converged wavefunctions
  ===> : Setting SCFConvForced true
         You can overwrite this default with %scf ConvForced false 


INFO   : the flag for use of the SHARK integral package has been found!

================================================================================
                                       INPUT FILE
================================================================================
NAME = a.inp
|  1> ! cam-B3LYP D3 def2-TZVP(-f) def2/J RIJCOSX tightSCF miniprint nopop
|  2> %maxcore  1000
|  3> %pal nprocs   8 end
|  4>  %TDDFT NROOTS 150 
|  5> end
|  6> ! CPCM(DMF)
|  7> * xyz   0   1
|  8> S      4.66848600    9.29091900    8.39496900
|  9> F      1.41094400    6.31119300    6.87491600
| 10> O      2.65407200    8.24011000    3.43250600
| 11> O     -2.77044700    5.39748500    4.83533100
| 12> C      0.56631800    6.50071300    5.82950700
| 13> C     -0.65053100    5.84982300    5.91598000
| 14> H     -0.85929000    5.25437100    6.79137100
| 15> C     -1.55388300    5.97874300    4.86171800
| 16> C     -1.20588300    6.74824700    3.74158500
| 17> H     -1.91417800    6.84465500    2.92976700
| 18> C      0.02299800    7.36313300    3.69044600
| 19> H      0.29751100    7.94896200    2.82430400
| 20> C      0.95779600    7.27386900    4.73869400
| 21> C      2.26152300    7.97530900    4.57212300
| 22> C      3.01785000    8.38106800    5.76054500
| 23> H      2.58874500    8.19158500    6.73306800
| 24> C      4.20991900    8.99924600    5.64041400
| 25> H      4.59626600    9.16797000    4.63995800
| 26> C      5.04818900    9.47203400    6.69941300
| 27> C      6.25224700   10.12533000    6.54875000
| 28> H      6.67148800   10.33803000    5.57383200
| 29> C      6.87618500   10.48677900    7.77212300
| 30> C      6.12462700   10.09274800    8.84842500
| 31> H      6.35392900   10.23262600    9.89361000
| 32> C     -3.16085600    4.58446100    5.95055000
| 33> H     -4.15633200    4.22022200    5.71336400
| 34> H     -3.19032200    5.17534200    6.86783800
| 35> H     -2.47672600    3.74261100    6.07153900
| 36> C      8.18720000   11.20813000    7.86815500
| 37> H      8.97959800   10.64407400    7.37080100
| 38> H      8.47542600   11.35908700    8.90809800
| 39> H      8.13013100   12.18562500    7.38339900
| 40>  *
| 41> 
| 42>                          ****END OF INPUT****
================================================================================

                       ****************************
                       * Single Point Calculation *
                       ****************************

---------------------------------
CARTESIAN COORDINATES (ANGSTROEM)
---------------------------------
  S      4.668486    9.290919    8.394969
  F      1.410944    6.311193    6.874916
  O      2.654072    8.240110    3.432506
  O     -2.770447    5.397485    4.835331
  C      0.566318    6.500713    5.829507
  C     -0.650531    5.849823    5.915980
  H     -0.859290    5.254371    6.791371
  C     -1.553883    5.978743    4.861718
  C     -1.205883    6.748247    3.741585
  H     -1.914178    6.844655    2.929767
  C      0.022998    7.363133    3.690446
  H      0.297511    7.948962    2.824304
  C      0.957796    7.273869    4.738694
  C      2.261523    7.975309    4.572123
  C      3.017850    8.381068    5.760545
  H      2.588745    8.191585    6.733068
  C      4.209919    8.999246    5.640414
  H      4.596266    9.167970    4.639958
  C      5.048189    9.472034    6.699413
  C      6.252247   10.125330    6.548750
  H      6.671488   10.338030    5.573832
  C      6.876185   10.486779    7.772123
  C      6.124627   10.092748    8.848425
  H      6.353929   10.232626    9.893610
  C     -3.160856    4.584461    5.950550
  H     -4.156332    4.220222    5.713364
  H     -3.190322    5.175342    6.867838
  H     -2.476726    3.742611    6.071539
  C      8.187200   11.208130    7.868155
  H      8.979598   10.644074    7.370801
  H      8.475426   11.359087    8.908098
  H      8.130131   12.185625    7.383399

----------------------------
CARTESIAN COORDINATES (A.U.)
----------------------------
  NO LB      ZA    FRAG     MASS         X           Y           Z
   0 S    16.0000    0    32.060    8.822160   17.557292   15.864192
   1 F     9.0000    0    18.998    2.666298   11.926426   12.991708
   2 O     8.0000    0    15.999    5.015469   15.571551    6.486496
   3 O     8.0000    0    15.999   -5.235386   10.199768    9.137451
   4 C     6.0000    0    12.011    1.070186   12.284567   11.016172
   5 C     6.0000    0    12.011   -1.229325   11.054563   11.179582
   6 H     1.0000    0     1.008   -1.623823    9.929322   12.833831
   7 C     6.0000    0    12.011   -2.936413   11.298187    9.187316
   8 C     6.0000    0    12.011   -2.278789   12.752339    7.070571
   9 H     1.0000    0     1.008   -3.617272   12.934523    5.536457
  10 C     6.0000    0    12.011    0.043460   13.914305    6.973932
  11 H     1.0000    0     1.008    0.562214   15.021361    5.337161
  12 C     6.0000    0    12.011    1.809972   13.745620    8.954834
  13 C     6.0000    0    12.011    4.273659   15.071150    8.640060
  14 C     6.0000    0    12.011    5.702910   15.837923   10.885852
  15 H     1.0000    0     1.008    4.892019   15.479852   12.723655
  16 C     6.0000    0    12.011    7.955594   17.006110   10.658838
  17 H     1.0000    0     1.008    8.685684   17.324953    8.768250
  18 C     6.0000    0    12.011    9.539695   17.899550   12.660056
  19 C     6.0000    0    12.011   11.815035   19.134101   12.375344
  20 H     1.0000    0     1.008   12.607285   19.536045   10.533016
  21 C     6.0000    0    12.011   12.994106   19.817140   14.687184
  22 C     6.0000    0    12.011   11.573868   19.072530   16.721100
  23 H     1.0000    0     1.008   12.007186   19.336861   18.696213
  24 C     6.0000    0    12.011   -5.973152    8.663376   11.244910
  25 H     1.0000    0     1.008   -7.854329    7.975064   10.796693
  26 H     1.0000    0     1.008   -6.028835    9.779979   12.978333
  27 H     1.0000    0     1.008   -4.680334    7.072510   11.473546
  28 C     6.0000    0    12.011   15.471566   21.180296   14.868658
  29 H     1.0000    0     1.008   16.968981   20.114385   13.928795
  30 H     1.0000    0     1.008   16.016234   21.465564   16.833866
  31 H     1.0000    0     1.008   15.363721   23.027494   13.952602



           ************************************************************
           *        Program running with 8 parallel MPI-processes     *
           *              working on a common directory               *
           ************************************************************
------------------------------------------------------------------------------
                   ___                                                        
                  /   \      - P O W E R E D   B Y -                         
                 /     \                                                     
                 |  |  |   _    _      __       _____    __    __             
                 |  |  |  | |  | |    /  \     |  _  \  |  |  /  |          
                  \  \/   | |  | |   /    \    | | | |  |  | /  /          
                 / \  \   | |__| |  /  /\  \   | |_| |  |  |/  /          
                |  |  |   |  __  | /  /__\  \  |    /   |      \           
                |  |  |   | |  | | |   __   |  |    \   |  |\   \          
                \     /   | |  | | |  |  |  |  | |\  \  |  | \   \       
                 \___/    |_|  |_| |__|  |__|  |_| \__\ |__|  \__/        
                                                                              
                      - O R C A' S   B I G   F R I E N D -                    
                                      &                                       
                       - I N T E G R A L  F E E D E R -                       
                                                                              
 v1 FN, 2020, v2 2021                                                         
------------------------------------------------------------------------------


Reading SHARK input file a.SHARKINP.tmp ... ok
----------------------
SHARK INTEGRAL PACKAGE
----------------------

Number of atoms                             ...     32
Number of basis functions                   ...    540
Number of shells                            ...    244
Maximum angular momentum                    ...      2
Integral batch strategy                     ... SHARK/LIBINT Hybrid
RI-J (if used) integral strategy            ... SPLIT-RIJ (Revised 2003 algorithm where possible)
Printlevel                                  ...      1
Contraction scheme used                     ... SEGMENTED contraction
Coulomb Range Separation                    ... NOT USED
Exchange Range Separation                   ... Long Range
   Mu parameter                             ...  0.330000
   Scaling (regular/separated)              ...  0.190000  0.460000
Finite Nucleus Model                        ... NOT USED
Auxiliary Coulomb fitting basis             ... AVAILABLE
   # of basis functions in Aux-J            ...   1076
   # of shells in Aux-J                     ...    352
   Maximum angular momentum in Aux-J        ...      4
Auxiliary J/K fitting basis                 ... NOT available
Auxiliary Correlation fitting basis         ... NOT available
Auxiliary 'external' fitting basis          ... NOT available
Integral threshold                          ...     2.500000e-11
Primitive cut-off                           ...     2.500000e-12
Primitive pair pre-selection threshold      ...     2.500000e-12

Calculating pre-screening integrals         ... done (  0.1 sec) Dimension = 244
Organizing shell pair data                  ... done (  0.2 sec)
Shell pair information
Total number of shell pairs                 ...     29890
Shell pairs after pre-screening             ...     18794
Total number of primitive shell pairs       ...    100152
Primitive shell pairs kept                  ...     41882
          la=0 lb=0:   5318 shell pairs
          la=1 lb=0:   6264 shell pairs
          la=1 lb=1:   1855 shell pairs
          la=2 lb=0:   3091 shell pairs
          la=2 lb=1:   1809 shell pairs
          la=2 lb=2:    457 shell pairs

Calculating one electron integrals          ... done (  0.0 sec)
Calculating RI/J V-Matrix + Cholesky decomp.... done (  0.1 sec)
Calculating Nuclear repulsion               ... done (  0.0 sec) ENN=   1397.817299808039 Eh

SHARK setup successfully completed in   0.6 seconds

Maximum memory used throughout the entire GTOINT-calculation: 30.5 MB


           ************************************************************
           *        Program running with 8 parallel MPI-processes     *
           *              working on a common directory               *
           ************************************************************

Diagonalization of the overlap matrix:
Smallest eigenvalue                        ... 9.639e-06
Time for diagonalization                   ...    0.051 sec
Threshold for overlap eigenvalues          ... 1.000e-08
Number of eigenvalues below threshold      ... 0
Time for construction of square roots      ...    0.032 sec
Total time needed                          ...    0.086 sec

Time for model grid setup =    0.259 sec

Loading Hartree-Fock densities                     ... done
Calculating cut-offs                               ... done
Initializing the effective Hamiltonian             ... done
Setting up the integral package (SHARK)            ... done
Starting the Coulomb interaction                   ... done (   0.4 sec)
Reading the grid                                   ... done
Mapping shells                                     ... done
Starting the XC term evaluation                    ... done (   0.2 sec)
  promolecular density results
     # of electrons  =    143.993313275
     EX              =   -131.777176185
     EC              =     -4.921206199
     EX+EC           =   -136.698382384
Transforming the Hamiltonian                       ... done (   0.0 sec)
Diagonalizing the Hamiltonian                      ... done (   0.1 sec)
Back transforming the eigenvectors                 ... done (   0.0 sec)
Now organizing SCF variables                       ... done
-------------------
DFT GRID GENERATION
-------------------

General Integration Accuracy     IntAcc      ... 4.388
Radial Grid Type                 RadialGrid  ... OptM3 with GC (2021)
Angular Grid (max. ang.)         AngularGrid ... 4 (Lebedev-302)
Angular grid pruning method      GridPruning ... 4 (adaptive)
Weight generation scheme         WeightScheme... Becke
Basis function cutoff            BFCut       ... 1.0000e-11
Integration weight cutoff        WCut        ... 1.0000e-14
Angular grids for H and He will be reduced by one unit
Partially contracted basis set               ... off
Rotationally invariant grid construction     ... off

Total number of grid points                  ...   157288
Total number of batches                      ...     2473
Average number of points per batch           ...       63
Average number of grid points per atom       ...     4915
Time for grid setup =    1.220 sec

--------------------
COSX GRID GENERATION
--------------------

GRIDX 1
-------
General Integration Accuracy     IntAcc      ... 3.816
Radial Grid Type                 RadialGrid  ... OptM3 with GC (2021)
Angular Grid (max. ang.)         AngularGrid ... 1 (Lebedev-50)
Angular grid pruning method      GridPruning ... 4 (adaptive)
Weight generation scheme         WeightScheme... Becke
Basis function cutoff            BFCut       ... 1.0000e-11
Integration weight cutoff        WCut        ... 1.0000e-14
Angular grids for H and He will be reduced by one unit
Partially contracted basis set               ... on
Rotationally invariant grid construction     ... off

Total number of grid points                  ...    19914
Total number of batches                      ...      325
Average number of points per batch           ...       61
Average number of grid points per atom       ...      622
UseSFitting                                  ... on

GRIDX 2
-------
General Integration Accuracy     IntAcc      ... 4.020
Radial Grid Type                 RadialGrid  ... OptM3 with GC (2021)
Angular Grid (max. ang.)         AngularGrid ... 2 (Lebedev-110)
Angular grid pruning method      GridPruning ... 4 (adaptive)
Weight generation scheme         WeightScheme... Becke
Basis function cutoff            BFCut       ... 1.0000e-11
Integration weight cutoff        WCut        ... 1.0000e-14
Angular grids for H and He will be reduced by one unit
Partially contracted basis set               ... on
Rotationally invariant grid construction     ... off

Total number of grid points                  ...    43871
Total number of batches                      ...      700
Average number of points per batch           ...       62
Average number of grid points per atom       ...     1371
UseSFitting                                  ... on

GRIDX 3
-------
General Integration Accuracy     IntAcc      ... 4.338
Radial Grid Type                 RadialGrid  ... OptM3 with GC (2021)
Angular Grid (max. ang.)         AngularGrid ... 3 (Lebedev-194)
Angular grid pruning method      GridPruning ... 4 (adaptive)
Weight generation scheme         WeightScheme... Becke
Basis function cutoff            BFCut       ... 1.0000e-11
Integration weight cutoff        WCut        ... 1.0000e-14
Angular grids for H and He will be reduced by one unit
Partially contracted basis set               ... on
Rotationally invariant grid construction     ... off

Total number of grid points                  ...    96874
Total number of batches                      ...     1529
Average number of points per batch           ...       63
Average number of grid points per atom       ...     3027
UseSFitting                                  ... on

Time for X-Grid setup             =    1.262 sec


--------------------
CPCM SOLVATION MODEL
--------------------
CPCM parameters:
  Epsilon                                         ...      38.3000
  Refrac                                          ...       1.4300
  Rsolv                                           ...       1.3000
  Surface type                                    ... GAUSSIAN VDW
  Epsilon function type                           ...         CPCM
Radii:
 Radius for S  used is    4.0818 Bohr (=   2.1600 Ang.)
 Radius for F  used is    3.3335 Bohr (=   1.7640 Ang.)
 Radius for O  used is    3.4469 Bohr (=   1.8240 Ang.)
 Radius for C  used is    3.8550 Bohr (=   2.0400 Ang.)
 Radius for H  used is    2.4944 Bohr (=   1.3200 Ang.)
Calculating surface                               ...        done! (  0.0s)
GEPOL surface points                              ...         1782
GEPOL Volume                                      ...    2147.5489
GEPOL Surface-area                                ...    1140.5738
Calculating surface distance matrix               ...        done! (  0.0s)
Performing Cholesky decomposition & store         ...        done! (  0.2s)
Overall time for CPCM initialization              ...                 0.2s
--------------
SCF ITERATIONS
--------------
ITER       Energy         Delta-E        Max-DP      RMS-DP      [F,P]     Damp
               ***  Starting incremental Fock matrix formation  ***
  0  -1227.3965398395   0.000000000000 0.24130602  0.00157996  0.2639499 0.7000
  1  -1227.5724062935  -0.175866453946 0.25107124  0.00147668  0.1181462 0.7000
                               ***Turning on DIIS***
  2  -1227.6545183036  -0.082112010141 0.36203144  0.00265688  0.0450384 0.0000
  3  -1227.7834130202  -0.128894716600 0.23851166  0.00113522  0.0606560 0.0000
  4  -1227.8082352329  -0.024822212720 0.05512446  0.00031121  0.0117483 0.0000
  5  -1227.8094124879  -0.001177254973 0.04110902  0.00021147  0.0115631 0.0000
                      *** Initiating the SOSCF procedure ***
                           *** Shutting down DIIS ***
                      *** Re-Reading the Fockian *** 
                      *** Removing any level shift *** 
ITER      Energy       Delta-E        Grad      Rot      Max-DP    RMS-DP
  6  -1227.80973175  -0.0003192605  0.001743  0.001743  0.013882  0.000087
               *** Restarting incremental Fock matrix formation ***
  7  -1227.80982016  -0.0000884133  0.001002  0.004180  0.012209  0.000107
  8  -1227.80987225  -0.0000520870  0.000496  0.004973  0.006639  0.000069
  9  -1227.80988079  -0.0000085398  0.000245  0.001089  0.002137  0.000034
 10  -1227.80988722  -0.0000064298  0.000092  0.000279  0.001874  0.000012
 11  -1227.80988732  -0.0000000989  0.000056  0.000188  0.000828  0.000006
 12  -1227.80988767  -0.0000003501  0.000011  0.000066  0.000113  0.000001
 13  -1227.80988766   0.0000000049  0.000008  0.000023  0.000094  0.000001
                  ***Gradient check signals convergence***
              ***Rediagonalizing the Fockian in SOSCF/NRSCF***

               *****************************************************
               *                     SUCCESS                       *
               *           SCF CONVERGED AFTER  14 CYCLES          *
               *****************************************************

Old exchange energy                            =    -36.764290311 Eh
New exchange energy                            =    -36.764281768 Eh
Exchange energy change after final integration =      0.000008544 Eh
Total energy after final integration           =  -1227.809879130 Eh
Final COS-X integration done in                =    30.312 sec
Total Energy       :        -1227.80987913 Eh          -33410.40536 eV
  Last Energy change         ...   -1.1899e-08  Tolerance :   1.0000e-08
  Last MAX-Density change    ...    2.6645e-15  Tolerance :   1.0000e-07
             **** THE GBW FILE WAS UPDATED (a.gbw) ****
             **** DENSITY a.scfp WAS UPDATED ****
             **** ENERGY FILE WAS UPDATED (a.en.tmp) ****
             **** THE GBW FILE WAS UPDATED (a.gbw) ****
             **** DENSITY a.scfp WAS UPDATED ****
----------------
ORBITAL ENERGIES
----------------

  NO   OCC          E(Eh)            E(eV) 
   0   2.0000     -88.960740     -2420.7448 
   1   2.0000     -24.781056      -674.3268 
   2   2.0000     -19.246373      -523.7204 
   3   2.0000     -19.186550      -522.0926 
   4   2.0000     -10.354780      -281.7679 
   5   2.0000     -10.346621      -281.5459 
   6   2.0000     -10.332694      -281.1669 
   7   2.0000     -10.295894      -280.1655 
   8   2.0000     -10.287703      -279.9426 
   9   2.0000     -10.279295      -279.7138 
  10   2.0000     -10.277085      -279.6537 
  11   2.0000     -10.267046      -279.3805 
  12   2.0000     -10.266544      -279.3669 
  13   2.0000     -10.262908      -279.2679 
  14   2.0000     -10.260276      -279.1963 
  15   2.0000     -10.258613      -279.1510 
  16   2.0000     -10.253552      -279.0133 
  17   2.0000     -10.251710      -278.9632 
  18   2.0000     -10.239941      -278.6430 
  19   2.0000      -8.038098      -218.7278 
  20   2.0000      -6.001781      -163.3168 
  21   2.0000      -5.997615      -163.2034 
  22   2.0000      -5.995160      -163.1366 
  23   2.0000      -1.321831       -35.9689 
  24   2.0000      -1.165235       -31.7077 
  25   2.0000      -1.122861       -30.5546 
  26   2.0000      -0.979314       -26.6485 
  27   2.0000      -0.961870       -26.1738 
  28   2.0000      -0.898112       -24.4389 
  29   2.0000      -0.865388       -23.5484 
  30   2.0000      -0.851006       -23.1571 
  31   2.0000      -0.847252       -23.0549 
  32   2.0000      -0.821703       -22.3597 
  33   2.0000      -0.795555       -21.6482 
  34   2.0000      -0.761334       -20.7170 
  35   2.0000      -0.731553       -19.9066 
  36   2.0000      -0.712973       -19.4010 
  37   2.0000      -0.691437       -18.8150 
  38   2.0000      -0.656536       -17.8652 
  39   2.0000      -0.632489       -17.2109 
  40   2.0000      -0.625066       -17.0089 
  41   2.0000      -0.609752       -16.5922 
  42   2.0000      -0.594111       -16.1666 
  43   2.0000      -0.586655       -15.9637 
  44   2.0000      -0.575188       -15.6517 
  45   2.0000      -0.562666       -15.3109 
  46   2.0000      -0.547725       -14.9043 
  47   2.0000      -0.546945       -14.8831 
  48   2.0000      -0.529169       -14.3994 
  49   2.0000      -0.519381       -14.1331 
  50   2.0000      -0.512476       -13.9452 
  51   2.0000      -0.500252       -13.6125 
  52   2.0000      -0.497170       -13.5287 
  53   2.0000      -0.492259       -13.3951 
  54   2.0000      -0.488395       -13.2899 
  55   2.0000      -0.478047       -13.0083 
  56   2.0000      -0.462924       -12.5968 
  57   2.0000      -0.459413       -12.5013 
  58   2.0000      -0.455898       -12.4056 
  59   2.0000      -0.448810       -12.2127 
  60   2.0000      -0.438732       -11.9385 
  61   2.0000      -0.435276       -11.8445 
  62   2.0000      -0.431952       -11.7540 
  63   2.0000      -0.415216       -11.2986 
  64   2.0000      -0.404337       -11.0026 
  65   2.0000      -0.396880       -10.7997 
  66   2.0000      -0.369315       -10.0496 
  67   2.0000      -0.336568        -9.1585 
  68   2.0000      -0.323817        -8.8115 
  69   2.0000      -0.310996        -8.4626 
  70   2.0000      -0.296299        -8.0627 
  71   2.0000      -0.276080        -7.5125 
  72   0.0000      -0.052960        -1.4411 
  73   0.0000       0.012140         0.3304 
  74   0.0000       0.024596         0.6693 
  75   0.0000       0.063805         1.7362 
  76   0.0000       0.065741         1.7889 
  77   0.0000       0.091437         2.4881 
  78   0.0000       0.092259         2.5105 
  79   0.0000       0.095937         2.6106 
  80   0.0000       0.103339         2.8120 
  81   0.0000       0.107236         2.9181 
  82   0.0000       0.117006         3.1839 
  83   0.0000       0.119405         3.2492 
  84   0.0000       0.127027         3.4566 
  85   0.0000       0.130151         3.5416 
  86   0.0000       0.140603         3.8260 
  87   0.0000       0.141480         3.8499 
  88   0.0000       0.152508         4.1500 
  89   0.0000       0.155846         4.2408 
  90   0.0000       0.162128         4.4117 
  91   0.0000       0.165680         4.5084 
  92   0.0000       0.168026         4.5722 
  93   0.0000       0.179608         4.8874 
  94   0.0000       0.179820         4.8932 
  95   0.0000       0.189120         5.1462 
  96   0.0000       0.197004         5.3607 
  97   0.0000       0.200673         5.4606 
  98   0.0000       0.208688         5.6787 
  99   0.0000       0.212952         5.7947 
 100   0.0000       0.229076         6.2335 
 101   0.0000       0.231222         6.2919 
 102   0.0000       0.232948         6.3388 
 103   0.0000       0.242525         6.5994 
 104   0.0000       0.244091         6.6421 
 105   0.0000       0.246356         6.7037 
 106   0.0000       0.254387         6.9222 
 107   0.0000       0.259050         7.0491 
 108   0.0000       0.262325         7.1382 
 109   0.0000       0.265672         7.2293 
 110   0.0000       0.273525         7.4430 
 111   0.0000       0.274908         7.4806 
 112   0.0000       0.291656         7.9364 
 113   0.0000       0.294734         8.0201 
 114   0.0000       0.297983         8.1085 
 115   0.0000       0.301846         8.2137 
 116   0.0000       0.304293         8.2802 
 117   0.0000       0.308591         8.3972 
 118   0.0000       0.318985         8.6800 
 119   0.0000       0.324806         8.8384 
 120   0.0000       0.330889         9.0039 
 121   0.0000       0.333240         9.0679 
 122   0.0000       0.338671         9.2157 
 123   0.0000       0.342924         9.3314 
 124   0.0000       0.353504         9.6193 
 125   0.0000       0.359723         9.7886 
 126   0.0000       0.366469         9.9721 
 127   0.0000       0.367434         9.9984 
 128   0.0000       0.374468        10.1898 
 129   0.0000       0.382794        10.4163 
 130   0.0000       0.388556        10.5732 
 131   0.0000       0.391514        10.6536 
 132   0.0000       0.397252        10.8098 
 133   0.0000       0.400368        10.8946 
 134   0.0000       0.406191        11.0530 
 135   0.0000       0.413678        11.2567 
 136   0.0000       0.418082        11.3766 
 137   0.0000       0.421419        11.4674 
 138   0.0000       0.427998        11.6464 
 139   0.0000       0.431190        11.7333 
 140   0.0000       0.437616        11.9081 
 141   0.0000       0.444422        12.0933 
 142   0.0000       0.446849        12.1594 
 143   0.0000       0.450431        12.2568 
 144   0.0000       0.451138        12.2761 
 145   0.0000       0.456827        12.4309 
 146   0.0000       0.462377        12.5819 
 147   0.0000       0.464611        12.6427 
 148   0.0000       0.469490        12.7755 
 149   0.0000       0.476634        12.9699 
 150   0.0000       0.492883        13.4120 
 151   0.0000       0.494033        13.4433 
 152   0.0000       0.497427        13.5357 
 153   0.0000       0.501348        13.6424 
 154   0.0000       0.507556        13.8113 
 155   0.0000       0.514150        13.9907 
 156   0.0000       0.521012        14.1775 
 157   0.0000       0.522724        14.2240 
 158   0.0000       0.527524        14.3547 
 159   0.0000       0.530395        14.4328 
 160   0.0000       0.531737        14.4693 
 161   0.0000       0.539123        14.6703 
 162   0.0000       0.543629        14.7929 
 163   0.0000       0.549725        14.9588 
 164   0.0000       0.551006        14.9936 
 165   0.0000       0.556732        15.1494 
 166   0.0000       0.568282        15.4637 
 167   0.0000       0.570161        15.5149 
 168   0.0000       0.580763        15.8034 
 169   0.0000       0.589476        16.0405 
 170   0.0000       0.603687        16.4271 
 171   0.0000       0.611930        16.6515 
 172   0.0000       0.615731        16.7549 
 173   0.0000       0.623126        16.9561 
 174   0.0000       0.634253        17.2589 
 175   0.0000       0.639115        17.3912 
 176   0.0000       0.649918        17.6852 
 177   0.0000       0.652912        17.7666 
 178   0.0000       0.665552        18.1106 
 179   0.0000       0.676625        18.4119 
 180   0.0000       0.681163        18.5354 
 181   0.0000       0.686220        18.6730 
 182   0.0000       0.691461        18.8156 
 183   0.0000       0.700196        19.0533 
 184   0.0000       0.705788        19.2055 
 185   0.0000       0.709868        19.3165 
 186   0.0000       0.720020        19.5927 
 187   0.0000       0.723542        19.6886 
 188   0.0000       0.730593        19.8804 
 189   0.0000       0.734678        19.9916 
 190   0.0000       0.739083        20.1115 
 191   0.0000       0.745086        20.2748 
 192   0.0000       0.756517        20.5859 
 193   0.0000       0.760442        20.6927 
 194   0.0000       0.762968        20.7614 
 195   0.0000       0.771257        20.9870 
 196   0.0000       0.775341        21.0981 
 197   0.0000       0.784737        21.3538 
 198   0.0000       0.791225        21.5303 
 199   0.0000       0.798841        21.7376 
 200   0.0000       0.804617        21.8948 
 201   0.0000       0.811001        22.0685 
 202   0.0000       0.827157        22.5081 
 203   0.0000       0.838815        22.8253 
 204   0.0000       0.849159        23.1068 
 205   0.0000       0.860956        23.4278 
 206   0.0000       0.868939        23.6450 
 207   0.0000       0.876996        23.8643 
 208   0.0000       0.887456        24.1489 
 209   0.0000       0.890546        24.2330 
 210   0.0000       0.897051        24.4100 
 211   0.0000       0.903208        24.5775 
 212   0.0000       0.912549        24.8317 
 213   0.0000       0.915399        24.9093 
 214   0.0000       0.916951        24.9515 
 215   0.0000       0.930144        25.3105 
 216   0.0000       0.934307        25.4238 
 217   0.0000       0.946060        25.7436 
 218   0.0000       0.950217        25.8567 
 219   0.0000       0.961765        26.1709 
 220   0.0000       0.970779        26.4162 
 221   0.0000       0.982896        26.7460 
 222   0.0000       0.991456        26.9789 
 223   0.0000       1.001933        27.2640 
 224   0.0000       1.014671        27.6106 
 225   0.0000       1.017711        27.6933 
 226   0.0000       1.023756        27.8578 
 227   0.0000       1.034628        28.1536 
 228   0.0000       1.043434        28.3933 
 229   0.0000       1.049447        28.5569 
 230   0.0000       1.062472        28.9113 
 231   0.0000       1.082899        29.4672 
 232   0.0000       1.085153        29.5285 
 233   0.0000       1.087922        29.6039 
 234   0.0000       1.100204        29.9381 
 235   0.0000       1.109708        30.1967 
 236   0.0000       1.117328        30.4040 
 237   0.0000       1.119273        30.4570 
 238   0.0000       1.133791        30.8520 
 239   0.0000       1.134270        30.8651 
 240   0.0000       1.141703        31.0673 
 241   0.0000       1.153283        31.3824 
 242   0.0000       1.165027        31.7020 
 243   0.0000       1.171921        31.8896 
 244   0.0000       1.190133        32.3852 
 245   0.0000       1.197950        32.5979 
 246   0.0000       1.209279        32.9061 
 247   0.0000       1.221724        33.2448 
 248   0.0000       1.241051        33.7707 
 249   0.0000       1.248329        33.9688 
 250   0.0000       1.254443        34.1351 
 251   0.0000       1.268582        34.5199 
 252   0.0000       1.280436        34.8424 
 253   0.0000       1.290790        35.1242 
 254   0.0000       1.298486        35.3336 
 255   0.0000       1.305526        35.5252 
 256   0.0000       1.315658        35.8009 
 257   0.0000       1.336011        36.3547 
 258   0.0000       1.345579        36.6151 
 259   0.0000       1.367522        37.2122 
 260   0.0000       1.370740        37.2997 
 261   0.0000       1.384693        37.6794 
 262   0.0000       1.392272        37.8856 
 263   0.0000       1.397245        38.0210 
 264   0.0000       1.408062        38.3153 
 265   0.0000       1.414287        38.4847 
 266   0.0000       1.433114        38.9970 
 267   0.0000       1.435815        39.0705 
 268   0.0000       1.442917        39.2638 
 269   0.0000       1.447116        39.3780 
 270   0.0000       1.455108        39.5955 
 271   0.0000       1.460144        39.7325 
 272   0.0000       1.489702        40.5369 
 273   0.0000       1.501899        40.8687 
 274   0.0000       1.511123        41.1197 
 275   0.0000       1.517787        41.3011 
 276   0.0000       1.533113        41.7181 
 277   0.0000       1.534561        41.7575 
 278   0.0000       1.538331        41.8601 
 279   0.0000       1.550137        42.1814 
 280   0.0000       1.560496        42.4632 
 281   0.0000       1.578532        42.9540 
 282   0.0000       1.584195        43.1081 
 283   0.0000       1.590826        43.2886 
 284   0.0000       1.594230        43.3812 
 285   0.0000       1.599560        43.5262 
 286   0.0000       1.611065        43.8393 
 287   0.0000       1.614778        43.9403 
 288   0.0000       1.618515        44.0420 
 289   0.0000       1.621244        44.1163 
 290   0.0000       1.623731        44.1840 
 291   0.0000       1.642035        44.6820 
 292   0.0000       1.649658        44.8895 
 293   0.0000       1.655211        45.0406 
 294   0.0000       1.655857        45.0582 
 295   0.0000       1.669384        45.4263 
 296   0.0000       1.673011        45.5250 
 297   0.0000       1.681640        45.7597 
 298   0.0000       1.690369        45.9973 
 299   0.0000       1.693683        46.0875 
 300   0.0000       1.699646        46.2497 
 301   0.0000       1.711011        46.5590 
 302   0.0000       1.719008        46.7766 
 303   0.0000       1.734065        47.1863 
 304   0.0000       1.745306        47.4922 
 305   0.0000       1.751537        47.6617 
 306   0.0000       1.757922        47.8355 
 307   0.0000       1.778069        48.3837 
 308   0.0000       1.779501        48.4227 
 309   0.0000       1.791765        48.7564 
 310   0.0000       1.794816        48.8394 
 311   0.0000       1.798504        48.9398 
 312   0.0000       1.817146        49.4471 
 313   0.0000       1.829945        49.7953 
 314   0.0000       1.846365        50.2421 
 315   0.0000       1.852133        50.3991 
 316   0.0000       1.862529        50.6820 
 317   0.0000       1.876636        51.0659 
 318   0.0000       1.896989        51.6197 
 319   0.0000       1.906459        51.8774 
 320   0.0000       1.914589        52.0986 
 321   0.0000       1.942864        52.8680 
 322   0.0000       1.953271        53.1512 
 323   0.0000       1.964204        53.4487 
 324   0.0000       1.982811        53.9550 
 325   0.0000       1.988218        54.1022 
 326   0.0000       2.012633        54.7665 
 327   0.0000       2.017653        54.9031 
 328   0.0000       2.029272        55.2193 
 329   0.0000       2.039327        55.4929 
 330   0.0000       2.051288        55.8184 
 331   0.0000       2.064150        56.1684 
 332   0.0000       2.065667        56.2097 
 333   0.0000       2.075366        56.4736 
 334   0.0000       2.089352        56.8542 
 335   0.0000       2.108121        57.3649 
 336   0.0000       2.119670        57.6791 
 337   0.0000       2.131394        57.9982 
 338   0.0000       2.158057        58.7237 
 339   0.0000       2.181305        59.3563 
 340   0.0000       2.190946        59.6187 
 341   0.0000       2.195564        59.7443 
 342   0.0000       2.204857        59.9972 
 343   0.0000       2.209595        60.1261 
 344   0.0000       2.230859        60.7048 
 345   0.0000       2.239029        60.9271 
 346   0.0000       2.243376        61.0454 
 347   0.0000       2.266295        61.6690 
 348   0.0000       2.279095        62.0173 
 349   0.0000       2.283949        62.1494 
 350   0.0000       2.298873        62.5555 
 351   0.0000       2.330167        63.4071 
 352   0.0000       2.332353        63.4666 
 353   0.0000       2.350972        63.9732 
 354   0.0000       2.353478        64.0414 
 355   0.0000       2.369063        64.4655 
 356   0.0000       2.375863        64.6505 
 357   0.0000       2.397716        65.2452 
 358   0.0000       2.406765        65.4914 
 359   0.0000       2.412071        65.6358 
 360   0.0000       2.431231        66.1572 
 361   0.0000       2.434133        66.2361 
 362   0.0000       2.459802        66.9346 
 363   0.0000       2.470130        67.2157 
 364   0.0000       2.472099        67.2692 
 365   0.0000       2.481611        67.5281 
 366   0.0000       2.486976        67.6741 
 367   0.0000       2.504408        68.1484 
 368   0.0000       2.509142        68.2772 
 369   0.0000       2.527096        68.7658 
 370   0.0000       2.533212        68.9322 
 371   0.0000       2.548232        69.3409 
 372   0.0000       2.557523        69.5937 
 373   0.0000       2.563745        69.7631 
 374   0.0000       2.571328        69.9694 
 375   0.0000       2.592007        70.5321 
 376   0.0000       2.613831        71.1260 
 377   0.0000       2.623691        71.3943 
 378   0.0000       2.631034        71.5941 
 379   0.0000       2.645076        71.9762 
 380   0.0000       2.685397        73.0734 
 381   0.0000       2.687424        73.1285 
 382   0.0000       2.714022        73.8523 
 383   0.0000       2.728929        74.2579 
 384   0.0000       2.733450        74.3810 
 385   0.0000       2.738231        74.5110 
 386   0.0000       2.747771        74.7707 
 387   0.0000       2.758347        75.0584 
 388   0.0000       2.775780        75.5328 
 389   0.0000       2.780647        75.6653 
 390   0.0000       2.789803        75.9144 
 391   0.0000       2.811884        76.5153 
 392   0.0000       2.814053        76.5743 
 393   0.0000       2.830833        77.0309 
 394   0.0000       2.842502        77.3484 
 395   0.0000       2.849283        77.5329 
 396   0.0000       2.852396        77.6176 
 397   0.0000       2.871264        78.1311 
 398   0.0000       2.878246        78.3211 
 399   0.0000       2.895320        78.7857 
 400   0.0000       2.898311        78.8670 
 401   0.0000       2.920071        79.4592 
 402   0.0000       2.927020        79.6483 
 403   0.0000       2.931513        79.7705 
 404   0.0000       2.939058        79.9758 
 405   0.0000       2.953692        80.3740 
 406   0.0000       2.970020        80.8184 
 407   0.0000       2.976698        81.0001 
 408   0.0000       2.993012        81.4440 
 409   0.0000       3.001817        81.6836 
 410   0.0000       3.011413        81.9447 
 411   0.0000       3.016001        82.0695 
 412   0.0000       3.026699        82.3607 
 413   0.0000       3.038088        82.6706 
 414   0.0000       3.041376        82.7601 
 415   0.0000       3.043884        82.8283 
 416   0.0000       3.050442        83.0068 
 417   0.0000       3.057086        83.1875 
 418   0.0000       3.072971        83.6198 
 419   0.0000       3.084738        83.9400 
 420   0.0000       3.103095        84.4395 
 421   0.0000       3.108579        84.5887 
 422   0.0000       3.114308        84.7446 
 423   0.0000       3.123351        84.9907 
 424   0.0000       3.137975        85.3886 
 425   0.0000       3.140344        85.4531 
 426   0.0000       3.149551        85.7036 
 427   0.0000       3.158938        85.9591 
 428   0.0000       3.168116        86.2088 
 429   0.0000       3.174811        86.3910 
 430   0.0000       3.185688        86.6870 
 431   0.0000       3.189285        86.7848 
 432   0.0000       3.193282        86.8936 
 433   0.0000       3.215358        87.4944 
 434   0.0000       3.226315        87.7925 
 435   0.0000       3.233640        87.9918 
 436   0.0000       3.241502        88.2057 
 437   0.0000       3.252135        88.4951 
 438   0.0000       3.267671        88.9178 
 439   0.0000       3.272538        89.0503 
 440   0.0000       3.289728        89.5181 
 441   0.0000       3.293208        89.6127 
 442   0.0000       3.307334        89.9971 
 443   0.0000       3.319093        90.3171 
 444   0.0000       3.343861        90.9911 
 445   0.0000       3.354828        91.2895 
 446   0.0000       3.355968        91.3205 
 447   0.0000       3.359246        91.4097 
 448   0.0000       3.378610        91.9367 
 449   0.0000       3.395595        92.3988 
 450   0.0000       3.405696        92.6737 
 451   0.0000       3.418592        93.0246 
 452   0.0000       3.421358        93.0999 
 453   0.0000       3.440399        93.6180 
 454   0.0000       3.457110        94.0727 
 455   0.0000       3.460423        94.1629 
 456   0.0000       3.476378        94.5971 
 457   0.0000       3.481647        94.7404 
 458   0.0000       3.497650        95.1759 
 459   0.0000       3.513936        95.6191 
 460   0.0000       3.521966        95.8376 
 461   0.0000       3.546687        96.5103 
 462   0.0000       3.559187        96.8504 
 463   0.0000       3.585025        97.5535 
 464   0.0000       3.590880        97.7128 
 465   0.0000       3.591785        97.7374 
 466   0.0000       3.603131        98.0462 
 467   0.0000       3.612227        98.2937 
 468   0.0000       3.628033        98.7238 
 469   0.0000       3.647224        99.2460 
 470   0.0000       3.665824        99.7521 
 471   0.0000       3.683714       100.2390 
 472   0.0000       3.705928       100.8434 
 473   0.0000       3.733146       101.5841 
 474   0.0000       3.769512       102.5736 
 475   0.0000       3.804205       103.5177 
 476   0.0000       3.811021       103.7032 
 477   0.0000       3.815991       103.8384 
 478   0.0000       3.831910       104.2716 
 479   0.0000       3.856693       104.9459 
 480   0.0000       3.886396       105.7542 
 481   0.0000       3.897033       106.0437 
 482   0.0000       3.916716       106.5792 
 483   0.0000       3.919416       106.6527 
 484   0.0000       3.960262       107.7642 
 485   0.0000       3.977884       108.2437 
 486   0.0000       4.005687       109.0003 
 487   0.0000       4.025662       109.5438 
 488   0.0000       4.084558       111.1465 
 489   0.0000       4.110787       111.8602 
 490   0.0000       4.127193       112.3066 
 491   0.0000       4.147122       112.8489 
 492   0.0000       4.188560       113.9765 
 493   0.0000       4.205859       114.4472 
 494   0.0000       4.221798       114.8810 
 495   0.0000       4.266353       116.0934 
 496   0.0000       4.319974       117.5525 
 497   0.0000       4.323539       117.6495 
 498   0.0000       4.334827       117.9566 
 499   0.0000       4.483307       121.9970 
 500   0.0000       4.518264       122.9482 
 501   0.0000       4.567761       124.2951 
 502   0.0000       4.767640       129.7341 
 503   0.0000       6.416508       174.6020 
 504   0.0000       6.538057       177.9096 
 505   0.0000       6.560580       178.5225 
 506   0.0000       6.625774       180.2965 
 507   0.0000       6.638084       180.6315 
 508   0.0000       6.686918       181.9603 
 509   0.0000       6.792437       184.8316 
 510   0.0000       6.871498       186.9830 
 511   0.0000       6.992245       190.2687 
 512   0.0000       7.146925       194.4777 
 513   0.0000       8.388263       228.2562 
 514   0.0000       8.504434       231.4174 
 515   0.0000       8.557453       232.8601 
 516   0.0000       8.843959       240.6564 
 517   0.0000       8.898911       242.1517 
 518   0.0000       8.905027       242.3181 
 519   0.0000       9.254766       251.8350 
 520   0.0000       9.282714       252.5955 
 521   0.0000      19.536568       531.6170 
 522   0.0000      21.673486       589.7655 
 523   0.0000      21.722027       591.0864 
 524   0.0000      22.058965       600.2550 
 525   0.0000      22.108503       601.6030 
 526   0.0000      22.139601       602.4492 
 527   0.0000      22.244120       605.2933 
 528   0.0000      22.248196       605.4042 
 529   0.0000      22.281987       606.3237 
 530   0.0000      22.389083       609.2379 
 531   0.0000      22.463252       611.2562 
 532   0.0000      22.498933       612.2271 
 533   0.0000      22.606334       615.1496 
 534   0.0000      22.664687       616.7375 
 535   0.0000      22.759437       619.3158 
 536   0.0000      23.056810       627.4077 
 537   0.0000      43.898228      1194.5315 
 538   0.0000      43.944167      1195.7816 
 539   0.0000      57.168203      1555.6259 
Total SCF time: 0 days 0 hours 3 min 29 sec 

Maximum memory used throughout the entire SCF-calculation: 100.3 MB


           ************************************************************
           *        Program running with 8 parallel MPI-processes     *
           *              working on a common directory               *
           ************************************************************
------------------------------------------------------------------------------
                        ORCA TD-DFT/TDA CALCULATION
------------------------------------------------------------------------------

Input orbitals are from        ... a.gbw
CI-vector output               ... a.cis
Tamm-Dancoff approximation     ... operative
CIS-Integral strategy          ... AO-integrals
Integral handling              ... AO integral Direct
Max. core memory used          ... 1000 MB
Reference state                ... RHF
Generation of triplets         ... off
Follow IRoot                   ... off
Number of operators            ... 1
Orbital ranges used for CIS calculation:
 Operator 0:  Orbitals  23... 71  to  72...539
XAS localization array:
 Operator 0:  Orbitals  -1... -1

-------------------
XC-INTEGRATION GRID
-------------------

General Integration Accuracy     IntAcc      ... 3.467
Radial Grid Type                 RadialGrid  ... OptM3 with GC (2021)
Angular Grid (max. ang.)         AngularGrid ... 1 (Lebedev-50)
Angular grid pruning method      GridPruning ... 4 (adaptive)
Weight generation scheme         WeightScheme... Becke
Basis function cutoff            BFCut       ... 1.0000e-11
Integration weight cutoff        WCut        ... 1.0000e-14
Angular grids for H and He will be reduced by one unit
Partially contracted basis set               ... off
Rotationally invariant grid construction     ... off

Total number of grid points                  ...    23064
Total number of batches                      ...      375
Average number of points per batch           ...       61
Average number of grid points per atom       ...      721

---------------------
COSX-INTEGRATION GRID
---------------------

General Integration Accuracy     IntAcc      ... 3.067
Radial Grid Type                 RadialGrid  ... OptM3 with GC (2021)
Angular Grid (max. ang.)         AngularGrid ... 1 (Lebedev-50)
Angular grid pruning method      GridPruning ... 4 (adaptive)
Weight generation scheme         WeightScheme... Becke
Basis function cutoff            BFCut       ... 1.0000e-11
Integration weight cutoff        WCut        ... 1.0000e-14
Angular grids for H and He will be reduced by one unit
Partially contracted basis set               ... on
Rotationally invariant grid construction     ... off

Total number of grid points                  ...    10665
Total number of batches                      ...      185
Average number of points per batch           ...       57
Average number of grid points per atom       ...      333

---------------
TD-DFT XC SETUP
---------------

DFT calculation                         ... on
Name of the grid file                   ... a.grid_cis.tmp
Exchange functional (TD-DFT)            ... WB88
Correlation functional (TD-DFT)         ... LYP
 LDA part of GGA corr.  LDAOpt (TD-DFT) ... VWN-5
Hybrid DFT                              ... on
   Exchange mixing (TD-DFT)             ...  0.190
   GGA exch. scaling (TD-DFT)           ...  0.350
   GGA corr. scaling (TD-DFT)           ...  0.810
Range-Separated Exchange                ... on
   Range Range separation parameter mu  .... 0.330
   Max. amount of RS exchange (TD-DFT)  ...  0.460

Building densities             ... done
Calculating rho(r) on the grid ... done
Building xc-kernel on the grid ... done
                    *** TD-DFT CALCULATION INITIALIZED ***

---------------------------------
    LR-CPCM (non-equilibrium)
---------------------------------

Setting up LR-CPCM             ... done

------------------------
DAVIDSON-DIAGONALIZATION
------------------------

Dimension of the eigenvalue problem            ...  22932
Number of roots to be determined               ...    150
Maximum size of the expansion space            ...   1500
Maximum number of iterations                   ...    100
Convergence tolerance for the residual         ...    2.500e-07
Convergence tolerance for the energies         ...    2.500e-07
Orthogonality tolerance                        ...    1.000e-14
Level Shift                                    ...    0.000e+00
Constructing the preconditioner                ... o.k.
Building the initial guess                     ... o.k.
Number of trial vectors determined             ...    512


                       ****Iteration    0****

   Memory handling for direct AO based CIS:
   Memory per vector needed      ...    16 MB
   Memory needed                 ...  7508 MB
   Memory available              ...  1000 MB
   Number of vectors per batch   ...    59
   Number of batches             ...     8
   Time for densities:            0.413
   Time for RI-J (Direct):        3.637
   Time for K (COSX):            31.335
   Time for XC-Integration:       9.674
   Time for LR-CPCM terms:        8.850
   Time for Sigma-Completion:     0.220
   Time for densities:            0.421
   Time for RI-J (Direct):        3.485
   Time for K (COSX):            31.148
   Time for XC-Integration:       9.834
   Time for LR-CPCM terms:        8.886
   Time for Sigma-Completion:     0.224
   Time for densities:            0.390
   Time for RI-J (Direct):        3.476
   Time for K (COSX):            31.347
   Time for XC-Integration:       9.881
   Time for LR-CPCM terms:        8.904
   Time for Sigma-Completion:     0.217
   Time for densities:            0.387
   Time for RI-J (Direct):        3.486
   Time for K (COSX):            31.146
   Time for XC-Integration:       9.946
   Time for LR-CPCM terms:        8.883
   Time for Sigma-Completion:     0.248
   Time for densities:            0.390
   Time for RI-J (Direct):        3.503
   Time for K (COSX):            30.694
   Time for XC-Integration:       9.979
   Time for LR-CPCM terms:        8.994
   Time for Sigma-Completion:     0.213
   Time for densities:            0.396
   Time for RI-J (Direct):        3.468
   Time for K (COSX):            30.737
   Time for XC-Integration:      10.068
   Time for LR-CPCM terms:        8.901
   Time for Sigma-Completion:     0.222
   Time for densities:            0.412
   Time for RI-J (Direct):        3.455
   Time for K (COSX):            30.725
   Time for XC-Integration:      10.049
   Time for LR-CPCM terms:        8.950
   Time for Sigma-Completion:     0.214
   Time for densities:            0.256
   Time for RI-J (Direct):        2.604
   Time for K (COSX):            18.726
   Time for XC-Integration:       6.297
   Time for LR-CPCM terms:        6.001
   Time for Sigma-Completion:     0.138
   Size of expansion space: 450
   Lowest Energy          :     0.142360854451
   Maximum Energy change  :     0.397888245798 (vector 149)
   Maximum residual norm  :     0.011830299766

                       ****Iteration    1****
   Time for densities:            0.383
   Time for RI-J (Direct):        3.509
   Time for K (COSX):            30.810
   Time for XC-Integration:      10.535
   Time for LR-CPCM terms:        8.885
   Time for Sigma-Completion:     0.215
   Time for densities:            0.379
   Time for RI-J (Direct):        3.530
   Time for K (COSX):            30.803
   Time for XC-Integration:      10.483
   Time for LR-CPCM terms:        8.907
   Time for Sigma-Completion:     0.213
   Time for densities:            0.217
   Time for RI-J (Direct):        2.347
   Time for K (COSX):            16.250
   Time for XC-Integration:       5.686
   Time for LR-CPCM terms:        5.245
   Time for Sigma-Completion:     0.121
   Size of expansion space: 600
   Lowest Energy          :     0.136836853906
   Maximum Energy change  :     0.010475782875 (vector 18)
   Maximum residual norm  :     0.000415829200

                       ****Iteration    2****
   Time for densities:            0.380
   Time for RI-J (Direct):        3.524
   Time for K (COSX):            30.688
   Time for XC-Integration:      10.612
   Time for LR-CPCM terms:        8.922
   Time for Sigma-Completion:     0.215
   Time for densities:            0.377
   Time for RI-J (Direct):        3.487
   Time for K (COSX):            30.710
   Time for XC-Integration:      10.664
   Time for LR-CPCM terms:        8.909
   Time for Sigma-Completion:     0.226
   Time for densities:            0.209
   Time for RI-J (Direct):        2.348
   Time for K (COSX):            16.208
   Time for XC-Integration:       5.741
   Time for LR-CPCM terms:        5.217
   Time for Sigma-Completion:     0.120
   Size of expansion space: 750
   Lowest Energy          :     0.136678977433
   Maximum Energy change  :     0.001632740566 (vector 149)
   Maximum residual norm  :     0.000396267337

                       ****Iteration    3****
   Time for densities:            0.387
   Time for RI-J (Direct):        3.481
   Time for K (COSX):            30.669
   Time for XC-Integration:      10.718
   Time for LR-CPCM terms:        8.953
   Time for Sigma-Completion:     0.218
   Time for densities:            0.380
   Time for RI-J (Direct):        3.543
   Time for K (COSX):            30.777
   Time for XC-Integration:      10.708
   Time for LR-CPCM terms:        8.982
   Time for Sigma-Completion:     0.214
   Time for densities:            0.207
   Time for RI-J (Direct):        2.317
   Time for K (COSX):            16.272
   Time for XC-Integration:       5.821
   Time for LR-CPCM terms:        5.271
   Time for Sigma-Completion:     0.119
   Size of expansion space: 900
   Lowest Energy          :     0.136677418368
   Maximum Energy change  :     0.000609638805 (vector 149)
   Maximum residual norm  :     0.000017866617

                       ****Iteration    4****
   Time for densities:            0.375
   Time for RI-J (Direct):        3.606
   Time for K (COSX):            30.878
   Time for XC-Integration:      10.922
   Time for LR-CPCM terms:        8.995
   Time for Sigma-Completion:     0.227
   Time for densities:            0.383
   Time for RI-J (Direct):        3.568
   Time for K (COSX):            30.798
   Time for XC-Integration:      10.909
   Time for LR-CPCM terms:        8.976
   Time for Sigma-Completion:     0.221
   Time for densities:            0.225
   Time for RI-J (Direct):        2.321
   Time for K (COSX):            16.284
   Time for XC-Integration:       5.937
   Time for LR-CPCM terms:        5.269
   Time for Sigma-Completion:     0.119
   Size of expansion space: 1050
   Lowest Energy          :     0.136677406312
   Maximum Energy change  :     0.000036151040 (vector 146)
   Maximum residual norm  :     0.000000872122

                       ****Iteration    5****
   Time for densities:            0.409
   Time for RI-J (Direct):        3.534
   Time for K (COSX):            30.939
   Time for XC-Integration:      10.995
   Time for LR-CPCM terms:        9.000
   Time for Sigma-Completion:     0.216
   Time for densities:            0.410
   Time for RI-J (Direct):        3.510
   Time for K (COSX):            30.743
   Time for XC-Integration:      10.813
   Time for LR-CPCM terms:        9.001
   Time for Sigma-Completion:     0.228
   Time for densities:            0.213
   Time for RI-J (Direct):        2.313
   Time for K (COSX):            16.311
   Time for XC-Integration:       5.841
   Time for LR-CPCM terms:        5.244
   Time for Sigma-Completion:     0.116
   Size of expansion space: 1200
   Lowest Energy          :     0.136677406231
   Maximum Energy change  :     0.000001301986 (vector 146)
   Maximum residual norm  :     0.000000029453

      *** CONVERGENCE OF RESIDUAL NORM REACHED ***

Storing the converged CI vectors               ... a.cis1

                 *** DAVIDSON DONE ***

Total time for solving the CIS problem:  1205.271sec

------------------------------------
TD-DFT/TDA EXCITED STATES (SINGLETS)
------------------------------------

the weight of the individual excitations are printed if larger than 1.0e-02

STATE  1:  E=   0.136677 au      3.719 eV    29997.2 cm**-1 <S**2> =   0.000000
    67a ->  72a  :     0.024543 (c=  0.15666278)
    70a ->  72a  :     0.010485 (c=  0.10239701)
    70a ->  73a  :     0.016099 (c= -0.12688277)
    71a ->  72a  :     0.896869 (c= -0.94703184)

STATE  2:  E=   0.140779 au      3.831 eV    30897.3 cm**-1 <S**2> =   0.000000
    67a ->  72a  :     0.725448 (c=  0.85173255)
    67a ->  73a  :     0.037135 (c= -0.19270321)
    67a ->  75a  :     0.024987 (c= -0.15807355)
    67a ->  85a  :     0.013026 (c=  0.11412950)
    68a ->  72a  :     0.099389 (c= -0.31526009)
    70a ->  72a  :     0.028127 (c=  0.16771004)
    71a ->  72a  :     0.036596 (c=  0.19130026)

STATE  3:  E=   0.166578 au      4.533 eV    36559.7 cm**-1 <S**2> =   0.000000
    65a ->  72a  :     0.011408 (c=  0.10680690)
    67a ->  72a  :     0.014242 (c= -0.11933990)
    68a ->  72a  :     0.021033 (c=  0.14502648)
    69a ->  72a  :     0.085441 (c= -0.29230368)
    69a ->  73a  :     0.010721 (c= -0.10354374)
    70a ->  72a  :     0.778920 (c=  0.88256431)
    70a ->  73a  :     0.015333 (c= -0.12382488)

STATE  4:  E=   0.173579 au      4.723 eV    38096.2 cm**-1 <S**2> =   0.000000
    68a ->  72a  :     0.014174 (c=  0.11905439)
    69a ->  72a  :     0.814514 (c=  0.90250422)
    69a ->  73a  :     0.030307 (c=  0.17408911)
    70a ->  72a  :     0.073236 (c=  0.27062122)
    71a ->  78a  :     0.011713 (c=  0.10822836)

STATE  5:  E=   0.181314 au      4.934 eV    39793.7 cm**-1 <S**2> =   0.000000
    67a ->  72a  :     0.095247 (c= -0.30862120)
    67a ->  73a  :     0.011386 (c=  0.10670405)
    68a ->  72a  :     0.514968 (c= -0.71761239)
    68a ->  73a  :     0.107054 (c=  0.32719098)
    70a ->  72a  :     0.026390 (c=  0.16245006)
    70a ->  74a  :     0.184553 (c= -0.42959591)
    71a ->  74a  :     0.030302 (c=  0.17407375)

STATE  6:  E=   0.207669 au      5.651 eV    45578.2 cm**-1 <S**2> =   0.000000
    71a ->  73a  :     0.859525 (c= -0.92710572)
    71a ->  75a  :     0.047300 (c= -0.21748469)

STATE  7:  E=   0.211679 au      5.760 eV    46458.2 cm**-1 <S**2> =   0.000000
    67a ->  72a  :     0.027208 (c=  0.16494768)
    68a ->  72a  :     0.295196 (c=  0.54331941)
    68a ->  73a  :     0.042741 (c=  0.20673946)
    68a ->  75a  :     0.036372 (c= -0.19071345)
    70a ->  73a  :     0.015306 (c=  0.12371709)
    70a ->  74a  :     0.451444 (c= -0.67189553)
    71a ->  74a  :     0.083452 (c=  0.28887982)

STATE  8:  E=   0.217798 au      5.927 eV    47801.1 cm**-1 <S**2> =   0.000000
    69a ->  76a  :     0.087159 (c=  0.29522692)
    70a ->  76a  :     0.039712 (c= -0.19927966)
    71a ->  76a  :     0.794410 (c= -0.89129704)
    71a ->  79a  :     0.028173 (c=  0.16784901)

STATE  9:  E=   0.226485 au      6.163 eV    49707.8 cm**-1 <S**2> =   0.000000
    66a ->  72a  :     0.103063 (c= -0.32103456)
    68a ->  74a  :     0.108295 (c= -0.32908174)
    70a ->  72a  :     0.017892 (c= -0.13376179)
    70a ->  73a  :     0.610232 (c= -0.78117362)
    70a ->  74a  :     0.013830 (c= -0.11759931)
    70a ->  75a  :     0.051862 (c=  0.22773180)
    71a ->  75a  :     0.026596 (c= -0.16308198)

STATE 10:  E=   0.228939 au      6.230 eV    50246.2 cm**-1 <S**2> =   0.000000
    66a ->  72a  :     0.744476 (c=  0.86283010)
    68a ->  74a  :     0.027874 (c= -0.16695382)
    69a ->  73a  :     0.023676 (c=  0.15387024)
    69a ->  75a  :     0.025029 (c=  0.15820411)
    70a ->  73a  :     0.077819 (c= -0.27896040)
    71a ->  75a  :     0.013753 (c=  0.11727157)

STATE 11:  E=   0.233480 au      6.353 eV    51243.0 cm**-1 <S**2> =   0.000000
    64a ->  72a  :     0.020312 (c=  0.14252110)
    66a ->  76a  :     0.033607 (c= -0.18332323)
    69a ->  76a  :     0.747384 (c=  0.86451397)
    69a ->  79a  :     0.034471 (c= -0.18566334)
    71a ->  76a  :     0.089166 (c=  0.29860694)

STATE 12:  E=   0.236022 au      6.422 eV    51800.8 cm**-1 <S**2> =   0.000000
    60a ->  72a  :     0.022345 (c= -0.14948389)
    62a ->  72a  :     0.101917 (c=  0.31924467)
    64a ->  72a  :     0.730222 (c=  0.85453052)
    64a ->  73a  :     0.063015 (c=  0.25102825)
    69a ->  76a  :     0.022305 (c= -0.14934770)

STATE 13:  E=   0.238377 au      6.487 eV    52317.8 cm**-1 <S**2> =   0.000000
    66a ->  72a  :     0.051960 (c= -0.22794650)
    69a ->  72a  :     0.055877 (c= -0.23638276)
    69a ->  73a  :     0.543691 (c=  0.73735425)
    69a ->  75a  :     0.131270 (c=  0.36231164)
    69a ->  76a  :     0.012918 (c=  0.11365937)
    71a ->  75a  :     0.037693 (c=  0.19414782)
    71a ->  77a  :     0.012888 (c=  0.11352631)
    71a ->  78a  :     0.078842 (c=  0.28078794)

STATE 14:  E=   0.240687 au      6.549 eV    52824.7 cm**-1 <S**2> =   0.000000
    66a ->  74a  :     0.027763 (c= -0.16662305)
    69a ->  74a  :     0.011091 (c= -0.10531369)
    70a ->  74a  :     0.111962 (c= -0.33460691)
    71a ->  74a  :     0.814831 (c= -0.90267981)

STATE 15:  E=   0.242350 au      6.595 eV    53189.7 cm**-1 <S**2> =   0.000000
    67a ->  72a  :     0.039200 (c= -0.19798885)
    67a ->  73a  :     0.680011 (c= -0.82462769)
    67a ->  75a  :     0.017845 (c=  0.13358593)
    67a ->  85a  :     0.033608 (c=  0.18332590)
    68a ->  73a  :     0.127347 (c=  0.35685758)
    70a ->  74a  :     0.020020 (c=  0.14149087)

STATE 16:  E=   0.254893 au      6.936 eV    55942.4 cm**-1 <S**2> =   0.000000
    65a ->  72a  :     0.015944 (c=  0.12626902)
    67a ->  74a  :     0.096968 (c= -0.31139660)
    68a ->  73a  :     0.014622 (c= -0.12092351)
    68a ->  74a  :     0.422331 (c=  0.64986998)
    69a ->  73a  :     0.027542 (c= -0.16595643)
    70a ->  73a  :     0.111739 (c= -0.33427331)
    71a ->  75a  :     0.212594 (c=  0.46107965)

STATE 17:  E=   0.256720 au      6.986 eV    56343.5 cm**-1 <S**2> =   0.000000
    65a ->  72a  :     0.050952 (c= -0.22572492)
    67a ->  73a  :     0.031638 (c= -0.17787058)
    67a ->  74a  :     0.480168 (c= -0.69294174)
    68a ->  73a  :     0.122461 (c= -0.34994492)
    68a ->  75a  :     0.015349 (c=  0.12389013)
    69a ->  73a  :     0.010698 (c=  0.10343317)
    70a ->  73a  :     0.011058 (c=  0.10515586)
    70a ->  74a  :     0.038476 (c= -0.19615402)
    71a ->  75a  :     0.137462 (c= -0.37075824)

STATE 18:  E=   0.259718 au      7.067 eV    57001.5 cm**-1 <S**2> =   0.000000
    58a ->  72a  :     0.019918 (c=  0.14113117)
    62a ->  72a  :     0.023555 (c= -0.15347476)
    64a ->  72a  :     0.010124 (c=  0.10061672)
    65a ->  72a  :     0.194409 (c= -0.44091854)
    65a ->  73a  :     0.016969 (c=  0.13026501)
    67a ->  74a  :     0.095300 (c= -0.30870677)
    68a ->  73a  :     0.039192 (c=  0.19797029)
    68a ->  74a  :     0.101059 (c= -0.31789726)
    69a ->  73a  :     0.017201 (c= -0.13115252)
    70a ->  73a  :     0.028917 (c=  0.17004957)
    70a ->  75a  :     0.036343 (c=  0.19063812)
    71a ->  73a  :     0.026333 (c= -0.16227369)
    71a ->  75a  :     0.271449 (c=  0.52100726)
    71a ->  85a  :     0.013758 (c=  0.11729595)

STATE 19:  E=   0.260411 au      7.086 eV    57153.6 cm**-1 <S**2> =   0.000000
    62a ->  72a  :     0.064305 (c=  0.25358334)
    64a ->  72a  :     0.012512 (c= -0.11185911)
    65a ->  72a  :     0.036827 (c=  0.19190234)
    65a ->  74a  :     0.010642 (c= -0.10315940)
    67a ->  73a  :     0.092627 (c=  0.30434683)
    67a ->  74a  :     0.218677 (c= -0.46762950)
    68a ->  72a  :     0.013037 (c=  0.11417989)
    68a ->  73a  :     0.311314 (c=  0.55795509)
    68a ->  75a  :     0.025604 (c= -0.16001355)
    70a ->  74a  :     0.071288 (c=  0.26699774)
    71a ->  75a  :     0.043959 (c= -0.20966502)

STATE 20:  E=   0.262464 au      7.142 eV    57604.2 cm**-1 <S**2> =   0.000000
    53a ->  72a  :     0.012499 (c=  0.11180039)
    57a ->  72a  :     0.081913 (c=  0.28620363)
    60a ->  73a  :     0.015694 (c= -0.12527617)
    61a ->  72a  :     0.013401 (c=  0.11576437)
    62a ->  72a  :     0.461343 (c=  0.67922213)
    64a ->  72a  :     0.061505 (c= -0.24800185)
    64a ->  73a  :     0.053935 (c= -0.23223988)
    64a ->  75a  :     0.018661 (c= -0.13660669)
    67a ->  73a  :     0.011215 (c= -0.10590019)
    68a ->  73a  :     0.050849 (c= -0.22549693)
    68a ->  74a  :     0.058138 (c= -0.24111863)
    70a ->  73a  :     0.010449 (c=  0.10222183)
    70a ->  74a  :     0.013815 (c= -0.11753666)
    71a ->  75a  :     0.040450 (c=  0.20112220)

STATE 21:  E=   0.267028 au      7.266 eV    58606.0 cm**-1 <S**2> =   0.000000
    60a ->  72a  :     0.018411 (c= -0.13568602)
    61a ->  72a  :     0.030151 (c=  0.17364046)
    62a ->  72a  :     0.040546 (c=  0.20135950)
    65a ->  72a  :     0.431509 (c= -0.65689361)
    65a ->  73a  :     0.052761 (c=  0.22969746)
    67a ->  74a  :     0.054078 (c=  0.23254635)
    68a ->  73a  :     0.023293 (c=  0.15262066)
    68a ->  74a  :     0.157802 (c=  0.39724289)
    70a ->  72a  :     0.011608 (c=  0.10773887)
    70a ->  73a  :     0.010015 (c= -0.10007674)
    70a ->  74a  :     0.013926 (c=  0.11800964)
    71a ->  75a  :     0.036010 (c= -0.18976218)

STATE 22:  E=   0.269601 au      7.336 eV    59170.5 cm**-1 <S**2> =   0.000000
    66a ->  79a  :     0.011803 (c=  0.10864204)
    70a ->  79a  :     0.015389 (c= -0.12405267)
    70a ->  81a  :     0.014307 (c=  0.11961030)
    71a ->  77a  :     0.027813 (c=  0.16677338)
    71a ->  78a  :     0.016640 (c=  0.12899726)
    71a ->  79a  :     0.322252 (c= -0.56767254)
    71a ->  81a  :     0.415658 (c=  0.64471525)
    71a ->  83a  :     0.013123 (c= -0.11455441)
    71a ->  86a  :     0.017680 (c=  0.13296778)
    71a ->  89a  :     0.013821 (c= -0.11756278)
    71a ->  92a  :     0.021258 (c= -0.14580150)

STATE 23:  E=   0.273533 au      7.443 eV    60033.5 cm**-1 <S**2> =   0.000000
    58a ->  72a  :     0.010903 (c=  0.10441641)
    59a ->  72a  :     0.024610 (c=  0.15687726)
    69a ->  73a  :     0.109114 (c=  0.33032374)
    70a ->  78a  :     0.018852 (c= -0.13730145)
    71a ->  77a  :     0.087721 (c= -0.29617708)
    71a ->  78a  :     0.572534 (c= -0.75665982)
    71a ->  79a  :     0.034284 (c= -0.18515918)
    71a ->  83a  :     0.018171 (c= -0.13479881)
    71a ->  85a  :     0.029181 (c=  0.17082379)

STATE 24:  E=   0.273903 au      7.453 eV    60114.7 cm**-1 <S**2> =   0.000000
    60a ->  72a  :     0.334505 (c= -0.57836445)
    60a ->  73a  :     0.014926 (c=  0.12217226)
    61a ->  72a  :     0.058590 (c=  0.24205390)
    62a ->  72a  :     0.013496 (c= -0.11617162)
    62a ->  73a  :     0.058687 (c=  0.24225323)
    63a ->  72a  :     0.283438 (c=  0.53238893)
    63a ->  73a  :     0.085260 (c= -0.29199365)
    63a ->  75a  :     0.012374 (c=  0.11123950)
    65a ->  72a  :     0.023937 (c=  0.15471737)
    67a ->  74a  :     0.013993 (c= -0.11829396)
    70a ->  80a  :     0.010445 (c=  0.10220053)

STATE 25:  E=   0.275799 au      7.505 eV    60530.9 cm**-1 <S**2> =   0.000000
    46a ->  72a  :     0.013615 (c=  0.11668231)
    51a ->  72a  :     0.030455 (c=  0.17451396)
    53a ->  72a  :     0.019269 (c= -0.13881196)
    56a ->  72a  :     0.146787 (c=  0.38312778)
    57a ->  72a  :     0.018308 (c= -0.13530687)
    60a ->  72a  :     0.069579 (c=  0.26377923)
    61a ->  72a  :     0.476199 (c=  0.69007168)
    61a ->  73a  :     0.036195 (c=  0.19024967)
    62a ->  73a  :     0.014176 (c= -0.11906286)
    65a ->  72a  :     0.010036 (c=  0.10017750)
    67a ->  75a  :     0.013092 (c=  0.11442033)
    70a ->  80a  :     0.018981 (c= -0.13777169)

STATE 26:  E=   0.278597 au      7.581 eV    61145.1 cm**-1 <S**2> =   0.000000
    60a ->  72a  :     0.021668 (c= -0.14720175)
    61a ->  72a  :     0.016838 (c= -0.12976227)
    70a ->  76a  :     0.013167 (c= -0.11474573)
    70a ->  77a  :     0.042365 (c=  0.20582747)
    70a ->  80a  :     0.284588 (c= -0.53346754)
    70a ->  82a  :     0.026013 (c=  0.16128679)
    70a ->  86a  :     0.013225 (c= -0.11500200)
    71a ->  77a  :     0.012737 (c= -0.11285906)
    71a ->  78a  :     0.014982 (c=  0.12240040)
    71a ->  79a  :     0.201239 (c= -0.44859626)
    71a ->  80a  :     0.028350 (c=  0.16837344)
    71a ->  81a  :     0.193534 (c= -0.43992493)
    71a ->  87a  :     0.011764 (c=  0.10846226)

STATE 27:  E=   0.279252 au      7.599 eV    61288.8 cm**-1 <S**2> =   0.000000
    69a ->  79a  :     0.010532 (c=  0.10262383)
    70a ->  77a  :     0.036653 (c= -0.19145099)
    70a ->  79a  :     0.030946 (c= -0.17591529)
    70a ->  80a  :     0.204997 (c=  0.45276565)
    70a ->  81a  :     0.040367 (c= -0.20091511)
    70a ->  82a  :     0.021668 (c= -0.14720198)
    71a ->  76a  :     0.019665 (c= -0.14023198)
    71a ->  79a  :     0.168935 (c= -0.41101726)
    71a ->  80a  :     0.134098 (c= -0.36619388)
    71a ->  81a  :     0.171198 (c= -0.41376060)
    71a ->  83a  :     0.014490 (c=  0.12037601)
    71a ->  86a  :     0.010201 (c= -0.10099859)
    71a ->  87a  :     0.022617 (c=  0.15038928)

STATE 28:  E=   0.282812 au      7.696 eV    62070.1 cm**-1 <S**2> =   0.000000
    64a ->  76a  :     0.025580 (c=  0.15993753)
    66a ->  73a  :     0.016778 (c= -0.12952904)
    69a ->  73a  :     0.054270 (c=  0.23295939)
    69a ->  75a  :     0.280224 (c= -0.52936210)
[...]
  61   71655.1    139.6      3.61472   0.07219  -0.20754  -0.12730
  62   71916.2    139.1    -20.88316   0.27237   0.24658   0.05991
  63   72248.0    138.4    -27.23604   0.29200   0.37023   0.11372
  64   72467.4    138.0    -24.96824   0.31353  -0.04955   0.13320
  65   72687.3    137.6     -9.52568   0.07332  -0.00916  -0.07511
  66   73010.6    137.0     -2.84875   0.07860   0.11496   0.01094
  67   73108.7    136.8     20.43675   0.00204   0.01868   0.18137
  68   73379.3    136.3     -5.02422   0.12161  -0.07467  -0.09725
  69   73510.3    136.0      3.20748   0.11228   0.03163  -0.01337
  70   73609.5    135.9      7.54368  -0.02097   0.04437  -0.12377
  71   73823.8    135.5      0.18407   0.33530   0.17721   0.13647
  72   74129.1    134.9     20.10842   0.42490   0.21639  -0.11252
  73   74220.5    134.7     -2.52555  -0.03477   0.10084  -0.02778
  74   74614.8    134.0      0.08233  -0.06342   0.18709   0.17659
  75   74880.7    133.5      8.16850   0.01787  -0.13501  -0.23476
  76   74944.8    133.4      2.42227   0.04482  -0.03991   0.00572
  77   74961.1    133.4     14.49740   0.05759   0.24661   0.11971
  78   75262.6    132.9     28.04576  -0.14996  -0.34564   0.21559
  79   75538.7    132.4    -49.86799   0.40220  -0.49112   0.05272
  80   75708.0    132.1    -23.46983  -0.30887   0.18852  -0.14564
  81   75809.6    131.9     -6.17821   0.12019   0.05775   0.56058
  82   76001.3    131.6    -21.38896  -0.17513   0.33584  -0.01199
  83   76249.4    131.1     36.57377  -0.08574  -0.01961   0.43649
  84   76525.6    130.7    -15.38690   0.01027  -0.26609   0.32926
  85   76863.8    130.1      9.38513   0.05691  -0.11404   0.16541
  86   76990.3    129.9     31.13765   0.00359   0.00312  -0.24299
  87   77139.6    129.6    -12.60755   0.16073   0.13392   0.31888
  88   77352.1    129.3    -18.22036  -0.19082  -0.16700   0.24763
  89   77436.2    129.1     -0.38044  -0.07565   0.05690   0.19718
  90   77647.6    128.8      1.83075  -0.11235  -0.04623  -0.13553
  91   78020.0    128.2     -0.33113  -0.03151   0.00707  -0.02098
  92   78435.9    127.5     -5.62530   0.02375  -0.03234  -0.12305
  93   78736.5    127.0    -29.03132  -0.12390   0.10095   0.07703
  94   78788.0    126.9     12.60916   0.06941   0.16330  -0.00102
  95   78967.0    126.6     22.72306   0.23943  -0.25114  -0.03892
  96   79116.4    126.4     18.44554  -0.08746   0.18019  -0.09986
  97   79401.0    125.9    -10.50850   0.21618   0.01413   0.11002
  98   79534.8    125.7      5.34905  -0.03966   0.34303   0.20755
  99   79628.2    125.6     -0.18886   0.08402   0.12942  -0.16637
 100   79732.0    125.4    -10.99640  -0.19921   0.48973   0.01998
 101   79771.5    125.4      3.54179   0.45347  -0.18324  -0.02651
 102   79906.8    125.1     10.07334   0.05489  -0.39302   0.29470
 103   79950.3    125.1    -15.31562   0.07634  -0.26760  -0.13069
 104   80122.9    124.8    -17.83095   0.14575  -0.12718  -0.52273
 105   80209.1    124.7     -1.12668  -0.06118  -0.14008  -0.12321
 106   80330.6    124.5      0.15358  -0.09138  -0.12988   0.02647
 107   80486.8    124.2      2.43514  -0.03455  -0.00255  -0.15772
 108   80601.9    124.1      5.24999  -0.02451  -0.11934   0.06338
 109   80802.7    123.8     -1.77115  -0.14655   0.16645  -0.00899
 110   80899.9    123.6      2.21656  -0.25096  -0.09090  -0.33407
 111   81039.2    123.4    -18.49648  -0.00970  -0.11547   0.21732
 112   81190.5    123.2     19.00757   0.04431  -0.07471   0.10633
 113   81637.3    122.5     -2.69065  -0.48411  -0.22415   0.12365
 114   81874.4    122.1     21.42490   0.20762  -0.16756   0.02657
 115   82115.6    121.8    -31.81186   0.35531  -0.01799   0.21110
 116   82184.0    121.7    -77.71368   0.41588  -0.27669  -0.16712
 117   82332.6    121.5    -22.80422  -0.33465   0.02023   0.19537
 118   82500.3    121.2     40.05501  -0.03017   0.49380   0.02969
 119   82561.1    121.1     13.75470  -0.14012  -0.13946  -0.14574
 120   82786.6    120.8     37.37113  -0.29244  -0.26252   0.02885
 121   82984.5    120.5     43.69330   0.06796   0.38429  -0.28222
 122   83041.3    120.4      4.15572   0.00681   0.06619   0.00019
 123   83159.9    120.3     -7.04048  -0.15546  -0.01937   0.18345
 124   83221.2    120.2      8.55503   0.17636   0.04017   0.13669
 125   83352.7    120.0    -15.50000  -0.12460  -0.20384   0.24609
 126   83475.7    119.8    -12.45815   0.05874  -0.00064  -0.16282
 127   83645.9    119.6     -9.63244  -0.15580  -0.12867  -0.03507
 128   83815.2    119.3     -4.56066  -0.05882   0.12855   0.04908
 129   83869.3    119.2    -11.64270  -0.15729  -0.11265  -0.07705
 130   84074.4    118.9     45.40157  -0.05878   0.19786   0.53374
 131   84125.8    118.9    -18.91648   0.13414   0.11004   0.14001
 132   84286.8    118.6     -4.42364  -0.01453   0.28070  -0.14401
 133   84337.0    118.6     -1.22885  -0.81201   0.31128  -0.59164
 134   84540.4    118.3     -0.50670  -0.02801  -0.59232  -0.16348
 135   84752.0    118.0      8.87972   0.16059  -0.01918  -0.17050
 136   84773.6    118.0     -6.23922  -0.25403   0.03207  -0.03936
 137   84973.5    117.7    -12.89362  -0.10080  -0.11313   0.23735
 138   85034.5    117.6     -1.59116   0.00475   0.11705  -0.07918
 139   85093.0    117.5      7.88149  -0.06607   0.26107  -0.35794
 140   85216.1    117.3      2.62732  -0.17886   0.15248  -0.05710
 141   85392.6    117.1    -12.56047   0.07071  -0.08921   0.34686
 142   85590.2    116.8     -2.51378   0.26650  -0.09692  -0.06427
 143   85661.0    116.7     -2.36926  -0.06400   0.01710  -0.02016
 144   85763.8    116.6    -16.21242   0.36041  -0.64095   0.00436
 145   85851.4    116.5    147.23859  -0.43510   1.14754  -0.07751
 146   85981.3    116.3     -1.77144  -0.27883   0.29739   0.32933
 147   86003.1    116.3     13.52006  -0.06991   0.18904   0.18998
 148   86120.6    116.1    -49.09730   0.42904  -0.61165  -0.35053
 149   86228.1    116.0      9.13545  -0.00088  -0.03174  -0.20262
 150   86315.8    115.9     33.83922  -0.27854   0.22874  -0.35865

-------------------------------------------------------------------
         CD SPECTRUM VIA TRANSITION VELOCITY DIPOLE MOMENTS        
-------------------------------------------------------------------
State  Energy     Wavelength     R         MX        MY        MZ   
       (cm-1)       (nm)     (1e40*cgs)   (au)      (au)      (au)  
-------------------------------------------------------------------
   1   29997.2    333.4    -15.86293  -0.31045   0.58184  -0.00941
   2   30897.3    323.7     -7.15396   0.16061  -0.06087  -0.29665
   3   36559.7    273.5      2.47346  -0.17042   0.24413   0.11139
   4   38096.2    262.5      8.42939   0.03444  -0.08067   0.03855
   5   39793.7    251.3      5.98680   0.05276  -0.17363  -0.06964
   6   45578.2    219.4      4.36349  -0.08625   0.18345  -0.05178
   7   46458.2    215.2      0.40341   0.02340  -0.03511  -0.03378
   8   47801.1    209.2     -2.72850  -0.15630  -0.08261   0.12332
   9   49707.8    201.2     -5.12781  -0.22067   0.35509   0.08320
  10   50246.2    199.0     -1.80964  -0.02790   0.02162   0.00843
  11   51243.0    195.1      0.16883  -0.07800  -0.04771   0.00951
  12   51800.8    193.0     -0.25513  -0.04926  -0.06831  -0.13072
  13   52317.8    191.1     -0.38652   0.01829  -0.04219   0.01432
  14   52824.7    189.3     -1.19138   0.01607   0.01311  -0.03266
  15   53189.7    188.0      4.35460   0.16034  -0.02325  -0.12622
  16   55942.4    178.8    -33.53356  -0.19101   0.41049   0.08144
  17   56343.5    177.5     13.13147  -0.05184   0.22056   0.02030
  18   57001.5    175.4     12.50844   0.18796  -0.33902  -0.14385
  19   57153.6    175.0     -6.42862   0.25410  -0.13129  -0.01472
  20   57604.2    173.6     24.85890   0.24764  -0.13156   0.34558
  21   58606.0    170.6     19.94917  -0.20925   0.44633   0.29939
  22   59170.5    169.0      3.38229   0.00145  -0.16302   0.06410
  23   60033.5    166.6     -8.43758  -0.33101   0.51610  -0.02056
  24   60114.7    166.3     -8.09939   0.03017   0.07602   0.12153
  25   60530.9    165.2     -1.97422  -0.04526  -0.16822   0.01290
  26   61145.1    163.5      8.60699  -0.22028  -0.09723  -0.10672
  27   61288.8    163.2      5.12067   0.09283  -0.00123  -0.22153
  28   62070.1    161.1    -10.89845  -0.09496   0.18842   0.05783
  29   62173.4    160.8     -8.67748  -0.21485  -0.13901   0.02838
  30   62676.9    159.5      4.28097   0.18211  -0.25438  -0.17807
  31   62981.9    158.8      4.99901   0.08297  -0.25646   0.44362
  32   63227.8    158.2      0.19621  -0.00643   0.02456  -0.01227
  33   63881.0    156.5     -2.97425   0.00172  -0.09350  -0.05391
  34   63950.5    156.4      3.34157   0.00536   0.04545  -0.07192
  35   64324.8    155.5      8.57565   0.02537  -0.02914  -0.10305
  36   65392.4    152.9     -0.07285  -0.08502  -0.04241   0.07450
  37   65667.6    152.3     -7.70812  -0.09903  -0.06334   0.20828
  38   65893.3    151.8      4.64839   0.12042  -0.07043   0.03247
  39   66098.0    151.3     -4.95695   0.02984  -0.22989  -0.21483
  40   66143.6    151.2     -0.67495   0.18284  -0.23383   0.13978
  41   66613.3    150.1     -8.71722   0.27769   0.08774  -0.15082
  42   66742.0    149.8      2.43954  -0.02435   0.10150  -0.04842
  43   67316.4    148.6    -20.80028   0.09981   0.20269  -0.37233
  44   67430.2    148.3     23.30625   0.35613   0.06452   0.04132
  45   67514.1    148.1      1.82457  -0.04532   0.17144  -0.09606
  46   67953.0    147.2      3.76083   0.28520   0.08589  -0.11029
  47   68152.4    146.7     13.99536  -0.18677   0.14792   0.15219
  48   68312.8    146.4    -25.37160  -0.00746  -0.37774   0.08376
  49   68448.3    146.1      0.10500   0.12535   0.03889  -0.38977
  50   68717.6    145.5    -12.32738   0.06243   0.05066  -0.13293
  51   69107.0    144.7    -10.70369   0.40917  -0.52469  -0.21861
  52   69519.1    143.8     -2.26331   0.19267   0.20465  -0.15923
  53   69780.1    143.3     15.75118   0.07061  -0.13229   0.16549
  54   69981.8    142.9     -7.59059   0.04265   0.12797  -0.01021
  55   70673.7    141.5     -0.29824  -0.05023   0.00067   0.04970
  56   70836.2    141.2     49.40447  -0.20918   0.15198  -0.28215
  57   70916.2    141.0      9.06325  -0.24639   0.40215   0.21105
  58   70968.0    140.9    -11.85226   0.00322  -0.22135   0.00172
  59   71476.2    139.9    -21.47257   0.28341   0.13692   0.15482
  60   71582.7    139.7      0.81386  -0.02988  -0.19079   0.21522
  61   71655.1    139.6      8.22105   0.07219  -0.20754  -0.12730
  62   71916.2    139.1    -17.17762   0.27237   0.24658   0.05991
  63   72248.0    138.4    -34.40903   0.29200   0.37023   0.11372
  64   72467.4    138.0     -7.63551   0.31353  -0.04955   0.13320
  65   72687.3    137.6     -3.17279   0.07332  -0.00916  -0.07511
  66   73010.6    137.0     -1.99718   0.07860   0.11496   0.01094
  67   73108.7    136.8     10.59772   0.00204   0.01868   0.18137
  68   73379.3    136.3      0.68675   0.12161  -0.07467  -0.09725
  69   73510.3    136.0      1.67118   0.11228   0.03163  -0.01337
  70   73609.5    135.9      3.13428  -0.02097   0.04437  -0.12377
  71   73823.8    135.5     -4.02472   0.33530   0.17721   0.13647
  72   74129.1    134.9     18.33793   0.42490   0.21639  -0.11252
  73   74220.5    134.7     -1.10809  -0.03477   0.10084  -0.02778
  74   74614.8    134.0      3.27789  -0.06342   0.18709   0.17659
  75   74880.7    133.5     11.53601   0.01787  -0.13501  -0.23476
  76   74944.8    133.4      2.24100   0.04482  -0.03991   0.00572
  77   74961.1    133.4      6.60090   0.05759   0.24661   0.11971
  78   75262.6    132.9     23.20367  -0.14996  -0.34564   0.21559
  79   75538.7    132.4    -36.89085   0.40220  -0.49112   0.05272
  80   75708.0    132.1    -15.22858  -0.30887   0.18852  -0.14564
  81   75809.6    131.9     -4.28525   0.12019   0.05775   0.56058
  82   76001.3    131.6     -9.13444  -0.17513   0.33584  -0.01199
  83   76249.4    131.1     15.22279  -0.08574  -0.01961   0.43649
  84   76525.6    130.7    -11.47518   0.01027  -0.26609   0.32926
  85   76863.8    130.1      9.14040   0.05691  -0.11404   0.16541
  86   76990.3    129.9     27.23126   0.00359   0.00312  -0.24299
  87   77139.6    129.6     -6.26385   0.16073   0.13392   0.31888
  88   77352.1    129.3    -12.58408  -0.19082  -0.16700   0.24763
  89   77436.2    129.1     -3.83736  -0.07565   0.05690   0.19718
  90   77647.6    128.8     -1.72026  -0.11235  -0.04623  -0.13553
  91   78020.0    128.2     -0.14787  -0.03151   0.00707  -0.02098
  92   78435.9    127.5     -1.09111   0.02375  -0.03234  -0.12305
  93   78736.5    127.0    -19.21371  -0.12390   0.10095   0.07703
  94   78788.0    126.9      9.11303   0.06941   0.16330  -0.00102
  95   78967.0    126.6     14.26062   0.23943  -0.25114  -0.03892
  96   79116.4    126.4      9.05751  -0.08746   0.18019  -0.09986
  97   79401.0    125.9     -4.30960   0.21618   0.01413   0.11002
  98   79534.8    125.7      1.15154  -0.03966   0.34303   0.20755
  99   79628.2    125.6     -3.09313   0.08402   0.12942  -0.16637
 100   79732.0    125.4     -4.79272  -0.19921   0.48973   0.01998
 101   79771.5    125.4     11.48865   0.45347  -0.18324  -0.02651
 102   79906.8    125.1    -17.05033   0.05489  -0.39302   0.29470
 103   79950.3    125.1     -4.84746   0.07634  -0.26760  -0.13069
 104   80122.9    124.8      7.74213   0.14575  -0.12718  -0.52273
 105   80209.1    124.7     -0.11551  -0.06118  -0.14008  -0.12321
 106   80330.6    124.5     -0.07569  -0.09138  -0.12988   0.02647
 107   80486.8    124.2      0.61683  -0.03455  -0.00255  -0.15772
 108   80601.9    124.1     -0.47542  -0.02451  -0.11934   0.06338
 109   80802.7    123.8     -4.39802  -0.14655   0.16645  -0.00899
 110   80899.9    123.6     -0.10567  -0.25096  -0.09090  -0.33407
 111   81039.2    123.4    -14.85686  -0.00970  -0.11547   0.21732
 112   81190.5    123.2     12.27193   0.04431  -0.07471   0.10633
 113   81637.3    122.5     -5.92220  -0.48411  -0.22415   0.12365
 114   81874.4    122.1     21.54204   0.20762  -0.16756   0.02657
 115   82115.6    121.8    -21.68172   0.35531  -0.01799   0.21110
 116   82184.0    121.7    -56.55500   0.41588  -0.27669  -0.16712
 117   82332.6    121.5    -13.28668  -0.33465   0.02023   0.19537
 118   82500.3    121.2     24.10408  -0.03017   0.49380   0.02969
 119   82561.1    121.1      8.10299  -0.14012  -0.13946  -0.14574
 120   82786.6    120.8     32.14298  -0.29244  -0.26252   0.02885
 121   82984.5    120.5     37.22218   0.06796   0.38429  -0.28222
 122   83041.3    120.4      3.39256   0.00681   0.06619   0.00019
 123   83159.9    120.3     -7.69148  -0.15546  -0.01937   0.18345
 124   83221.2    120.2      7.71385   0.17636   0.04017   0.13669
 125   83352.7    120.0    -14.71104  -0.12460  -0.20384   0.24609
 126   83475.7    119.8     -7.90162   0.05874  -0.00064  -0.16282
 127   83645.9    119.6     -6.84499  -0.15580  -0.12867  -0.03507
 128   83815.2    119.3     -2.66186  -0.05882   0.12855   0.04908
 129   83869.3    119.2    -10.27591  -0.15729  -0.11265  -0.07705
 130   84074.4    118.9     16.76834  -0.05878   0.19786   0.53374
 131   84125.8    118.9    -21.45995   0.13414   0.11004   0.14001
 132   84286.8    118.6     -0.10312  -0.01453   0.28070  -0.14401
 133   84337.0    118.6     16.36191  -0.81201   0.31128  -0.59164
 134   84540.4    118.3      5.34080  -0.02801  -0.59232  -0.16348
 135   84752.0    118.0      7.87753   0.16059  -0.01918  -0.17050
 136   84773.6    118.0     -9.95011  -0.25403   0.03207  -0.03936
 137   84973.5    117.7    -10.68197  -0.10080  -0.11313   0.23735
 138   85034.5    117.6     -3.30415   0.00475   0.11705  -0.07918
 139   85093.0    117.5     11.27748  -0.06607   0.26107  -0.35794
 140   85216.1    117.3      4.54061  -0.17886   0.15248  -0.05710
 141   85392.6    117.1    -13.90503   0.07071  -0.08921   0.34686
 142   85590.2    116.8      3.40156   0.26650  -0.09692  -0.06427
 143   85661.0    116.7     -1.90911  -0.06400   0.01710  -0.02016
 144   85763.8    116.6    -15.48949   0.36041  -0.64095   0.00436
 145   85851.4    116.5     90.02306  -0.43510   1.14754  -0.07751
 146   85981.3    116.3     15.99920  -0.27883   0.29739   0.32933
 147   86003.1    116.3     11.08946  -0.06991   0.18904   0.18998
 148   86120.6    116.1    -45.59244   0.42904  -0.61165  -0.35053
 149   86228.1    116.0      8.61563  -0.00088  -0.03174  -0.20262
 150   86315.8    115.9     24.65870  -0.27854   0.22874  -0.35865

Total run time:     1206.710 sec

           *** ORCA-CIS/TD-DFT FINISHED WITHOUT ERROR ***

Maximum memory used throughout the entire CIS-calculation: 815.6 MB

-----------------------
CIS/TD-DFT TOTAL ENERGY
-----------------------

    E(SCF)  =  -1227.809879130 Eh
    DE(CIS) =      0.136677406 Eh (Root  1)
    ----------------------------- ---------
    E(tot)  =  -1227.673201724 Eh



-------------------------------------------------------------------------------
                          DFT DISPERSION CORRECTION                            
                                                                               
                              DFTD3 V3.1  Rev 1                                
                          USING Becke-Johnson damping                          
-------------------------------------------------------------------------------
-------------------------   ----------------
Dispersion correction           -0.031416104
-------------------------   ----------------


-------------------------   --------------------
FINAL SINGLE POINT ENERGY     -1227.704617827753
-------------------------   --------------------


                            ***************************************
                            *     ORCA property calculations      *
                            ***************************************

                                    ---------------------
                                    Active property flags
                                    ---------------------
   (+) Dipole Moment


------------------------------------------------------------------------------
                       ORCA ELECTRIC PROPERTIES CALCULATION
------------------------------------------------------------------------------

Dipole Moment Calculation                       ... on
Quadrupole Moment Calculation                   ... off
Polarizability Calculation                      ... off
GBWName                                         ... a.gbw
Electron density                                ... a.scfp
The origin for moment calculation is the CENTER OF MASS  = ( 4.460458, 15.017343 11.466023)

-------------
DIPOLE MOMENT
-------------
                                X             Y             Z
Electronic contribution:     -3.68266      -3.53216       0.05761
Nuclear contribution   :      3.37891       3.31608       1.77557
                        -----------------------------------------
Total Dipole Moment    :     -0.30374      -0.21609       1.83318
                        -----------------------------------------
Magnitude (a.u.)       :      1.87069
Magnitude (Debye)      :      4.75493



--------------------
Rotational spectrum 
--------------------
 
Rotational constants in cm-1:     0.035604     0.003976     0.003622 
Rotational constants in MHz :  1067.393831   119.186486   108.598135 

 Dipole components along the rotational axes: 
x,y,z [a.u.] :     0.176445     1.844048     0.260485 
x,y,z [Debye]:     0.448487     4.687196     0.662100 

 

Timings for individual modules:

Sum of individual times         ...     1417.217 sec (=  23.620 min)
GTO integral calculation        ...        0.820 sec (=   0.014 min)   0.1 %
SCF iterations                  ...      209.467 sec (=   3.491 min)  14.8 %
CIS module                      ...     1206.930 sec (=  20.116 min)  85.2 %
                             ****ORCA TERMINATED NORMALLY****
TOTAL RUN TIME: 0 days 0 hours 23 minutes 37 seconds 690 msec
